

1110 atoms
4 atom types 

   0.0000000000   22.0008095079 xlo xhi
   0.0000000000   20.1587049456 ylo yhi
   0.0000000000   70.0 zlo zhi

Masses

     1   12.01100000
     2   15.99900000
     3   1.00800000
     4   35.50000000

Atoms # atomic

     1      1    10.92177600    14.02200900    10.59195900
     2      1    19.52213300    12.44575900    10.28111900
     3      1    20.72922100    13.10003200    10.66620500
     4      1    5.82356000    9.63929800    11.57130900
     5      1    13.20297100    22.37757700    8.82095700
     6      1    11.70837900    4.08073700    8.02263700
     7      1    3.48466500    17.70556400    8.46878100
     8      1    4.57650900    4.19451100    7.70325100
     9      1    3.33391300    4.63037000    8.46993100
     10      1    12.32992200    15.92830100    9.77216600
     11      1    13.53570100    16.67684600    9.70833700
     12      1    14.42416000    23.14603400    8.36878400
     13      1    4.50340100    7.82527000    10.29612400
     14      1    5.75032700    8.61071500    10.45557900
     15      1    10.77036900    8.80549500    9.92041500
     16      1    10.77812700    10.16029900    10.62928000
     17      1    7.02868900    10.43663600    11.83088000
     18      1    8.43548900    14.03632800    10.63435600
     19      1    9.65533400    14.71293000    10.21997300
     20      1    5.81577600    22.07138100    7.46721600
     21      1    5.90806200    20.55183600    7.48153800
     22      1    2.17127200    18.38857700    8.26639600
     23      1    20.72794000    17.00694800    10.31256100
     24      1    19.59638800    16.64362900    11.19345500
     25      1    18.01848400    6.18297300    8.70441300
     26      1    16.80531700    6.98811500    8.56057100
     27      1    15.57872300    6.37703800    7.94603700
     28      1    15.49460900    5.01381600    7.50685600
     29      1    14.21489000    4.23674600    7.53611000
     30      1    12.93990200    4.96132500    7.73106000
     31      1    14.43961600    6.86276400    8.79115300
     32      1    13.10062700    6.15559800    8.57573700
     33      1    15.70234000    10.40842400    9.64260300
     34      1    17.01703100    11.09065500    9.77329000
     35      1    18.31041500    10.65757500    9.05348700
     36      1    19.48534800    10.95376700    10.02099100
     37      1    10.72522400    20.64424700    8.99462200
     38      1    10.63268900    22.04301500    8.70802000
     39      1    8.09797100    22.03060200    8.87943700
     40      1    9.40527500    22.67847300    9.01494500
     41      1    9.52747200    8.09944300    10.12903000
     42      1    9.49101800    6.72015600    9.57848400
     43      1    8.09308200    4.64469100    9.16202600
     44      1    8.16609400    6.06570100    9.40922700
     45      1    4.73245500    18.49651700    8.35604000
     46      1    6.04160000    17.79180100    8.62302900
     47      1    8.51527200    17.59723700    8.04716600
     48      1    7.26723600    18.31740800    7.96382600
     49      1    2.05458300    10.46282900    11.75555000
     50      1    2.14501300    11.90578700    11.58265500
     51      1    23.11276200    12.76697700    10.98719900
     52      1    21.86321800    12.15648900    10.79901700
     53      1    21.93616500    16.02672600    10.28181100
     54      1    23.02183000    16.36976800    9.33617100
     55      1    3.57162400    16.38208200    9.15392100
     56      1    2.34233400    15.82173600    9.71810400
     57      1    4.62120200    6.50611100    9.67298600
     58      1    3.40712400    5.74911600    9.45539800
     59      1    7.03476800    8.14683300    9.88922500
     60      1    7.05689600    6.95689800    9.03154900
     61      1    3.46716000    12.49382800    11.03824800
     62      1    4.57414100    11.58310000    11.04626000
     63      1    5.87494500    12.40841400    11.05254300
     64      1    7.02606800    11.96468000    11.76522000
     65      1    5.93127300    13.55961700    9.98307700
     66      1    4.70232800    14.30697400    9.82002700
     67      1    3.65893700    13.92512600    10.76669600
     68      1    2.52214600    14.85823700    10.84086500
     69      1    21.60406100    18.37459800    8.46236600
     70      1    22.88392300    17.61953500    8.55550900
     71      1    6.09614200    16.29060900    9.01120300
     72      1    4.87018100    15.74553700    9.53524000
     73      1    7.31188100    15.35224300    8.77372600
     74      1    7.32250500    14.11213100    9.64933300
     75      1    10.84914200    12.78480700    11.37480600
     76      1    13.23966000    10.12175600    10.55856100
     77      1    14.45465900    10.87146900    10.48764400
     78      1    14.60880200    11.94278500    11.50447500
     79      1    15.87447500    12.75874100    11.61121700
     80      1    17.14072800    12.12671100    10.99388300
     81      1    18.31986000    12.95519600    11.04750300
     82      1    18.33347700    14.43743900    11.51610000
     83      1    17.09059300    15.09343700    11.72927100
     84      1    14.58557100    16.22713300    10.63085700
     85      1    15.68966700    17.06973100    10.93019000
     86      1    13.32161100    14.12165100    11.40113400
     87      1    12.17580700    14.73802600    10.70288600
     88      1    11.85278100    22.84299300    8.39857200
     89      1    16.84681700    4.24558300    7.38742500
     90      1    18.06131700    4.77596300    8.11132300
     91      1    14.35971100    8.33636300    9.11659600
     92      1    15.60548400    9.14845500    8.90279500
     93      1    13.27670900    8.74899100    10.00396400
     94      1    12.01503300    8.02659400    9.83595200
     95      1    10.55453600    6.25184100    8.72256300
     96      1    11.91179200    6.90903300    8.86383800
     97      1    10.60450800    4.74951100    8.66526400
     98      1    9.44596600    3.95611100    9.06693500
     99      1    6.78027300    4.00590000    8.64019900
     100      1    6.79086900    22.72755400    8.45257700
     101      1    22.04191200    15.12282100    11.51820100
     102      1    19.17014900    19.69497100    8.23867100
     103      1    12.02053000    10.51018400    11.47215100
     104      1    9.38713200    10.84056300    10.84539300
     105      1    8.60916200    15.99914700    8.18994700
     106      1    20.33575800    17.69556600    9.03423600
     107      1    20.58125900    21.82168200    7.44111300
     108      1    22.90778400    5.57668600    9.94080400
     109      1    2.09355000    6.48438100    9.59900400
     110      1    2.18437700    3.69246200    8.79001200
     111      1    2.02610900    22.78755000    7.64964800
     112      1    19.36090300    22.82635100    7.39065000
     113      1    18.05313100    21.95453300    7.42171100
     114      1    16.97737300    19.23234200    10.30340100
     115      1    15.88778700    18.14688100    9.88045000
     116      1    16.95188100    16.64122600    11.69239700
     117      1    18.33464400    17.50743500    11.40354200
     118      1    23.25698100    14.18610400    11.52882700
     119      1    18.42491700    9.09876300    8.56593300
     120      1    16.88905000    8.53255600    8.32103600
     121      1    4.57534900    22.94010900    7.04940600
     122      1    3.26923800    21.92578500    7.16934500
     123      1    14.56387900    20.32650900    9.03681600
     124      1    15.83854000    21.20156100    9.25824000
     125      1    13.26282300    21.03212400    9.61659100
     126      1    11.99542000    20.07574700    9.56714400
     127      1    7.33459100    19.85886600    7.76730300
     128      1    7.97578600    20.49325800    9.03165500
     129      1    9.38435400    19.74385600    9.26396000
     130      1    9.85116600    18.45137400    8.29792700
     131      1    9.99887200    15.55413300    9.01583600
     132      1    10.96174700    16.61499200    9.64712700
     133      1    14.67574400    14.74621700    10.84170700
     134      1    15.74045800    14.29212600    11.88402900
     135      1    9.53628500    12.04779100    11.78589100
     136      1    8.25886000    12.92934300    11.78629000
     137      1    21.47104300    10.70364200    11.28992700
     138      1    22.75475500    9.75142600    11.69879300
     139      1    5.87439400    4.91847800    7.81311800
     140      1    5.71428000    6.36745600    8.55551800
     141      1    3.33292400    9.59262300    11.58503500
     142      1    4.51020700    10.27790100    11.69844200
     143      1    13.25995100    12.68048400    11.69960500
     144      1    12.07570100    12.02089900    11.62824200
     145      1    20.74365200    14.37104300    11.42283000
     146      1    19.61909300    15.14151000    11.36859900
     147      1    8.29015000    8.66803400    10.54819100
     148      1    8.28749900    9.89284500    11.13543400
     149      1    15.74588800    22.40023200    8.31287400
     150      1    2.18609100    19.87359800    8.20353800
     151      1    20.40359500    10.05211700    10.39395600
     152      1    19.36624100    8.12018400    9.35284100
     153      1    20.47615400    8.66281300    10.03633300
     154      1    19.35074200    6.76418900    9.06513400
     155      1    21.63767800    7.83677700    10.24718600
     156      1    20.46626100    5.90361500    9.34868800
     157      1    22.85914600    8.41886700    10.75494100
     158      1    21.62651800    6.43440600    9.76860300
     159      1    20.39965600    4.53245600    8.74473500
     160      1    2.06321400    7.71563700    10.62139200
     161      1    19.26037600    3.94491900    8.22955400
     162      1    21.67165800    3.83215600    8.61790100
     163      1    3.25121400    8.25731900    11.00409800
     164      1    22.86793700    4.45052100    8.97449400
     165      1    16.76897200    22.84285500    7.55658800
     166      1    21.69652900    22.55450100    8.06763000
     167      1    18.26925700    18.48138800    10.24859600
     168      1    13.45184900    18.14381600    9.48242400
     169      1    22.89040900    21.95259300    8.06025000
     170      1    19.22376800    18.61690100    9.32485700
     171      1    14.58927500    18.86723100    9.60010500
     172      1    12.18844300    18.67610400    9.07944600
     173      1    18.06330100    20.73185300    8.40793400
     174      1    20.49476200    20.45424800    8.09460600
     175      1    22.94875900    20.48570800    8.08419000
     176      1    17.06692100    20.36724300    9.22866500
     177      1    21.65847400    19.80125400    8.25783200
     178      1    11.10722200    17.87005200    8.90223300
     179      1    3.43838700    20.53377700    7.90613900
     180      1    4.63319100    19.83675600    7.72989400
     181      2    10.89856600    12.82997100    9.81462000
     182      2    3.57586100    4.99762900    7.03165700
     183      2    6.13046800    21.33021500    6.24569500
     184      2    4.81325100    8.91313500    9.35735800
     185      2    10.86281300    9.95058200    9.19473600
     186      2    13.87243000    3.20530300    9.69383900
     187      2    8.84472700    15.32432800    11.20305300
     188      2    6.59898600    9.43101800    12.79748700
     189      2    13.12898600    15.83390000    8.60415400
     190      2    20.67916900    17.59358400    11.59980300
     191      2    2.81972000    17.70283300    7.15252200
     192      2    7.80629200    5.20175400    10.51301200
     193      2    8.66251900    22.35582000    10.29184200
     194      2    9.77236100    6.93189300    10.95127600
     195      2    14.00981400    5.88245500    9.75709200
     196      2    17.06605100    6.29954000    9.83163800
     197      2    15.44775700    6.11853700    6.49868000
     198      2    13.40067700    4.67463200    6.39915600
     199      2    10.56986000    21.09416600    7.68435400
     200      2    7.82587300    17.74630500    6.71653800
     201      2    5.43229500    18.67787400    9.61594800
     202      2    2.82609200    15.37486100    8.36528400
     203      2    22.12845400    15.30651600    9.06922000
     204      2    22.81986600    12.36272700    9.58052000
     205      2    2.07034300    11.38264800    12.89799700
     206      2    18.43733800    11.53224400    7.96293200
     207      2    16.03454200    11.59206200    8.81056100
     208      2    18.10858200    11.88086100    12.02711200
     209      2    13.38961600    11.12084900    9.55010800
     210      2    14.45519900    9.12123500    7.91610300
     211      2    15.36867800    11.88249000    12.71855900
     212      2    17.91667700    14.62743500    12.85216700
     213      2    20.13950300    13.32718900    9.24373500
     214      2    12.83504100    7.81540600    11.03922800
     215      2    17.76321400    4.89042200    6.54922300
     216      2    12.49729300    15.02638100    12.10889100
     217      2    14.59488400    17.23330100    11.79093000
     218      2    3.62257400    11.62696400    9.86799400
     219      2    3.58076900    14.92809200    11.83979200
     220      2    11.08932600    7.09836100    7.61812700
     221      2    22.11366100    17.48872400    7.34454400
     222      2    4.33861600    5.46849800    10.64146100
     223      2    11.51667200    3.12865400    6.97524100
     224      2    5.98334600    12.81264700    12.40900400
     225      2    5.11649600    13.39914400    8.85855200
     226      2    10.41135600    4.37918900    10.12336100
     227      2    5.73317800    16.31321900    10.47380800
     228      2    7.31738400    8.22316600    8.44275500
     229      2    7.36139400    14.00740600    8.29899200
     230      2    6.06160200    3.08814000    9.57584500
     231      2    7.09449800    20.44404200    10.12796200
     232      2    16.61261000    16.96064400    13.10996700
     233      2    16.60559800    19.70635800    11.57257000
     234      2    18.66332800    18.19309200    12.61387400
     235      2    15.82534100    21.85077100    10.56449700
     236      2    13.43129300    21.33454900    11.03686000
     237      2    11.66742000    19.75270700    10.99070100
     238      2    9.27873900    19.26396600    10.59117500
     239      2    10.58084500    16.92502600    10.99644300
     240      2    8.29273600    13.67613100    12.99768200
     241      2    9.65389300    11.48011900    13.12110300
     242      2    15.21988600    14.48253300    13.19968500
     243      2    16.24081400    17.52363400    8.62944200
     244      2    14.34579400    20.13149100    7.61922000
     245      2    10.80252800    14.67426400    8.14815300
     246      2    10.36744400    18.69614600    7.00243600
     247      2    8.16897700    20.12307700    6.60144800
     248      2    19.14903300    9.17169100    7.37364700
     249      2    16.77384000    8.54356900    6.84653000
     250      2    19.49228700    3.14970900    6.04000700
     251      2    17.89431400    21.24134800    6.08981900
     252      2    15.05643400    14.17661300    9.62501000
     253      2    22.43495800    9.15258400    12.94387200
     254      2    20.81745900    11.06648200    12.54052400
     255      2    1.64297900    13.92800600    12.86575200
     256      2    22.24626200    15.92878200    12.71987800
     257      2    2.52573400    3.03486600    10.00638200
     258      2    23.04665600    5.12129800    11.28342200
     259      2    4.73191500    3.13564600    5.70088000
     260      2    3.03391400    21.47563400    5.78886700
     261      2    1.50120600    3.27885500    6.38386900
     262      2    5.19585400    7.14264600    7.46288800
     263      2    6.50008400    5.13876300    6.63082300
     264      2    1.86346400    7.10190500    8.24593200
     265      2    19.71525400    16.65854100    8.24976800
     266      2    8.83616900    15.53072300    6.90210300
     267      2    21.00764800    21.52470000    6.10209100
     268      2    18.93195500    18.95554700    6.99750600
     269      2    11.99371600    9.93904500    12.77967000
     270      2    8.88290900    11.40826000    9.53889400
     271      3    20.47865500    16.22954400    7.79355500
     272      3    8.14769300    16.01504300    6.37023000
     273      3    21.11968000    22.35635200    5.55743100
     274      3    18.55602600    19.62435500    6.35752800
     275      3    21.39869900    15.92206900    13.26088800
     276      3    2.41708700    7.90319600    8.21744200
     277      3    22.32147000    4.39213300    11.50899700
     278      3    1.82354400    2.40471100    10.32605900
     279      3    2.17754200    24.12893700    6.06667500
     280      3    17.08228300    17.74572800    8.17494200
     281      3    17.18613100    20.45835500    11.95215400
     282      3    18.92594500    3.95279200    6.09878800
     283      3    18.27804200    21.72373600    5.34137300
     284      3    17.88605700    18.72956300    12.78577900
     285      3    15.79516600    16.43812400    13.44617000
     286      3    0.82078800    13.73116500    13.40275400
     287      3    11.93213800    8.96913200    12.68967500
     288      3    9.73781900    11.78043000    9.19317000
     289      3    10.25429300    17.80928400    10.96369800
     290      3    10.35140900    14.51959300    7.28516700
     291      3    9.89209200    12.16607400    13.77644800
     292      3    7.71088300    14.51512100    12.96210700
     293      3    20.29996100    10.35804000    12.90032600
     294      3    0.41889600    9.85110100    13.59587100
     295      3    16.47604400    22.63001300    10.61913300
     296      3    14.40860700    21.36531400    11.21525000
     297      3    12.29173500    20.27196100    11.56330300
     298      3    9.80579600    19.89188000    11.17621100
     299      3    7.42100200    19.80621900    10.73768900
     300      3    2.21718800    21.98971400    5.58093500
     301      3    4.29803100    2.35572600    5.19637400
     302      3    7.73455900    20.84382600    6.02242300
     303      3    9.73125900    19.15275600    6.45050300
     304      3    14.27385500    19.18516700    7.40272700
     305      3    17.70240200    8.81149700    6.57342700
     306      3    18.88438400    11.13318000    7.19447400
     307      3    15.72300500    14.02115400    13.92711800
     308      3    14.29542400    14.11046000    9.00675200
     309      3    5.16296900    8.05805200    7.71924800
     310      3    6.13682900    6.03193800    6.34800100
     311      2    13.15666100    5.62088400    16.69749500
     312      3    13.30817300    6.11792100    17.46551500
     313      3    13.48026100    6.15337800    15.94097200
     314      3    10.38553000    6.37307800    20.06916500
     315      4    16.42608300    1.82170700    17.48133000
     316      2    16.38324200    13.87202900    15.59169600
     317      3    15.75975400    14.30788400    16.21985400
     318      3    16.37164500    12.94182100    15.88021500
     319      2    10.15296500    6.15732000    16.23639900
     320      3    9.60232400    5.94002400    17.08578000
     321      3    11.06506300    6.13983200    16.63083200
     322      2    11.20634400    23.67174000    21.47224800
     323      3    10.50837200    23.29662100    22.03919400
     324      3    11.23311600    24.64416700    21.64931500
     325      2    -1.21734300    3.67798100    27.16526800
     326      3    -0.45660200    3.40523600    26.54299000
     327      3    -0.72288500    3.88253500    27.98665800
     328      2    13.28208800    18.36055000    17.99415800
     329      3    12.48107900    18.36858900    17.37584000
     330      3    13.97779100    18.09304600    17.35760400
     331      2    6.19678600    14.18478200    20.53861500
     332      3    7.01928500    13.73341700    20.37696000
     333      3    5.84698600    13.86892400    21.37372400
     334      2    15.94936800    1.26357900    25.99888800
     335      3    16.14659900    1.97167700    26.68264600
     336      3    16.19897500    1.65822800    25.18644700
     337      2    5.34254300    21.27712400    26.22112100
     338      3    5.59772400    21.25361100    25.31173700
     339      3    5.65264600    22.12680600    26.61087000
     340      2    24.72552900    15.29794400    18.14534900
     341      3    24.33418100    14.53596000    17.62582500
     342      3    24.04761500    15.83833900    18.56451500
     343      2    3.46954200    4.18243500    13.13140600
     344      3    4.83962500    3.42407100    13.37929000
     345      3    3.11264000    4.08175000    12.23169800
     346      2    2.06376800    0.91240500    21.06710200
     347      3    1.12928900    0.86309000    21.36025800
     348      3    2.44782400    0.97901600    21.97678800
     349      2    14.49429400    14.30358700    17.61510600
     350      3    14.59478500    14.83300500    18.43435700
     351      3    13.53500100    14.46223000    17.33410400
     352      2    10.09912000    6.58067800    19.16777300
     353      3    9.97253200    7.53025800    19.00270400
     354      3    7.18058700    7.88858200    20.50186300
     355      2    8.60913300    16.14276500    21.80952600
     356      3    8.22075100    16.80287200    21.21988900
     357      3    8.62613200    15.36922000    21.15825100
     358      2    13.62389900    8.63594200    22.31965100
     359      3    13.59513200    8.56204000    23.31990800
     360      3    14.46304100    9.07468000    22.14457500
     361      2    6.66154800    16.63879600    28.27551700
     362      3    6.46756100    17.62355000    28.20439900
     363      3    5.91769800    16.42177600    28.90339300
     364      2    15.69058600    6.13042800    22.73718600
     365      3    15.18507300    5.27863900    22.51768700
     366      3    15.07932000    6.79117800    22.39116900
     367      2    18.05966200    4.39530100    26.64308400
     368      3    19.00569500    4.28622400    26.88447600
     369      3    -4.48743000    3.95347500    27.37938500
     370      2    3.18364900    10.52671200    31.71195400
     371      3    2.95754600    10.31574400    30.77703300
     372      3    2.75207300    9.77224100    32.12268400
     373      2    21.24887100    13.00416900    14.25385400
     374      3    21.57518400    12.34361000    14.87197700
     375      3    20.97917000    12.41591500    13.51014900
     376      2    16.05028700    6.54241300    25.36429400
     377      3    15.80336600    6.20770500    24.47633900
     378      3    17.02863700    6.48659200    25.45078700
     379      2    12.73829800    14.40123800    22.77214200
     380      3    11.91748000    15.03883000    22.76771200
     381      3    12.61180700    13.83247000    21.95701000
     382      2    4.31427100    12.97555100    27.95762100
     383      3    4.64295300    12.54078800    28.75135200
     384      3    3.55995600    12.43420000    27.76977000
     385      2    2.32276500    6.35254300    17.19975700
     386      3    2.03723800    5.56958100    16.65542500
     387      3    25.13508400    6.09605500    17.68202700
     388      2    16.32015200    9.08106000    12.31277600
     389      3    15.74295400    9.64668400    12.82260600
     390      3    15.97521800    8.17356600    12.44611200
     391      2    10.60189000    2.47611100    24.66428600
     392      3    10.19236000    1.60025000    24.78927400
     393      3    11.54623300    2.36651400    24.94311500
     394      2    -0.85875500    6.47465500    13.34022300
     395      3    21.47256300    6.66336900    14.21288800
     396      3    -0.71969900    7.27050100    12.82534600
     397      2    3.33170100    16.08736200    14.65840000
     398      3    2.43442300    16.43176500    14.81915700
     399      3    2.97658100    15.38990100    14.03761000
     400      2    8.84302300    6.11846000    27.40814600
     401      3    9.63349100    6.61041500    27.81133700
     402      3    9.01465000    5.18401900    27.27668200
     403      2    12.43153700    4.89125600    12.64767500
     404      3    12.54902800    4.33392300    11.87592700
     405      3    11.83967200    4.26325900    13.24891100
     406      2    2.28179200    5.80508700    20.52522900
     407      3    2.05460100    4.85621100    20.38900900
     408      3    1.77116000    6.07841300    21.30187800
     409      2    14.53792100    18.30428500    28.76416600
     410      3    14.65293700    17.35923000    29.09779000
     411      3    14.01145100    18.26717400    27.99245500
     412      2    5.64936000    23.01009600    13.68247100
     413      3    6.65265200    23.38412700    13.49962800
     414      3    5.53220700    22.11917500    13.11576300
     415      2    18.33926400    14.00836500    27.12299700
     416      3    -4.23246000    14.64967400    26.66782400
     417      3    18.71067800    14.47732600    27.87372600
     418      2    18.40575000    20.80701400    15.35385800
     419      3    18.15416100    19.83509800    15.33053800
     420      3    17.83137700    21.27469300    16.00941400
     421      2    0.75647200    3.96262800    22.91156600
     422      3    0.84214800    3.05015200    23.26666600
     423      3    0.28438400    4.44546500    23.59825900
     424      2    27.41737200    11.06123100    19.37053800
     425      3    28.02853800    11.32480000    18.65216100
     426      3    26.76137900    10.43235700    18.88928400
     427      2    6.65551900    6.64055300    12.74960900
     428      3    5.30105200    6.48260700    13.87165500
     429      3    7.04062500    5.81993700    12.63293800
     430      2    22.56390800    17.15488800    22.40160600
     431      3    22.52735700    16.33479100    22.92933100
     432      3    21.73735800    -2.55515300    22.57969500
     433      2    9.75183400    -0.72474000    26.15302100
     434      3    9.10535500    -1.28711400    25.67468300
     435      3    10.15025900    -1.20039300    26.92489200
     436      2    15.12358900    10.44675700    19.58947000
     437      3    15.20642200    10.64594900    18.63649500
     438      3    16.04132800    10.49136500    19.92822500
     439      2    3.57417700    20.64304700    18.92744400
     440      3    2.85838200    20.58720000    19.61825100
     441      3    3.57951100    19.73041300    18.58087300
     442      2    13.20976900    12.55584700    19.75438500
     443      3    13.70208100    12.81758400    18.94175300
     444      3    13.75882300    11.88222200    20.10434300
     445      2    25.83124000    17.92532300    17.26107000
     446      3    25.64543700    16.98507100    17.38246100
     447      3    25.36965200    18.20889700    16.47667800
     448      2    18.17377100    3.60022200    24.09708000
     449      3    18.44222500    4.45856000    23.80527500
     450      3    18.12531900    3.65944400    25.12056200
     451      2    10.40272600    10.35204200    28.68874000
     452      3    9.50131200    10.69996600    28.78027500
     453      3    10.93534300    10.94500600    29.32560000
     454      2    16.15854600    9.42550300    22.50274300
     455      3    15.94135000    10.20711900    23.05849800
     456      3    17.15338100    9.52631900    22.19115400
     457      2    5.38718400    19.53151300    21.06221400
     458      3    4.90501000    19.94814700    20.33969900
     459      3    6.31790600    19.74801800    20.93145800
     460      2    -4.30984800    18.69883500    30.87765100
     461      3    -3.99350400    18.87553800    29.99812700
     462      3    -4.38975700    19.61883200    31.24699000
     463      2    5.74299900    3.00757500    20.16100000
     464      3    4.93166700    3.06266100    19.63927200
     465      3    6.46742700    23.07966000    19.55302600
     466      2    8.09258000    4.54514800    18.39719000
     467      3    8.52061100    5.25155200    18.87204900
     468      3    8.74997200    3.82495400    18.48492900
     469      2    10.68934400    11.41904400    25.91610900
     470      3    11.04124600    10.62735700    25.48061600
     471      3    10.61431400    11.09675800    26.86318400
     472      2    2.80024900    5.01415300    28.84123000
     473      3    3.14798600    5.91386400    28.69279100
     474      3    3.54919100    4.63323800    29.33951400
     475      2    4.19325300    17.91796100    12.47565000
     476      3    4.15587300    17.15666600    13.06660000
     477      3    4.96311000    17.80001600    11.81155200
     478      2    13.47305800    20.71529400    19.40321200
     479      3    12.49601300    20.76616100    19.64111800
     480      3    13.63563300    20.13502500    18.63737400
     481      2    9.88998400    9.47291500    17.66382300
     482      3    9.96502900    8.88062400    16.85053700
     483      3    9.07745400    9.99836100    17.46087300
     484      2    10.88999000    13.87116200    20.13381600
     485      3    11.77634200    13.51394200    20.01309100
     486      3    11.02269900    14.80447000    20.17973500
     487      2    20.19528000    11.69766200    21.27559700
     488      3    21.17768100    11.80350900    21.37586800
     489      3    19.83841900    10.93538200    21.85039900
     490      2    13.93734200    12.23888400    29.03489300
     491      3    14.20902500    11.35671700    28.84534500
     492      3    14.54535300    12.89660800    28.74481600
     493      2    -3.98743700    24.05492000    11.08137000
     494      3    -3.15871000    23.56652100    11.06923900
     495      3    -3.89585600    4.55643500    11.79680200
     496      2    9.28806500    25.87982600    23.41899900
     497      3    8.43274800    25.47151400    23.56081400
     498      3    8.98780700    26.77651800    23.21311400