

1110 atoms
4 atom types 

   0.0000000000   22.0075975895 xlo xhi
   0.0000000000   20.1537775419 ylo yhi
   0.0000000000   70.0 zlo zhi

Masses

     1   12.01100000
     2   15.99900000
     3   1.00800000
     4   35.50000000

Atoms # atomic

     1      1    10.66631100    13.02101000    11.41663100
     2      1    19.28316300    11.37915100    11.29524500
     3      1    20.54079400    11.97292300    11.73370400
     4      1    5.64091500    8.66175200    12.31540700
     5      1    12.88633700    1.22603000    9.49809000
     6      1    11.49547400    3.02138900    8.62582700
     7      1    3.25120800    16.62337700    8.87644700
     8      1    4.26710700    3.06287600    8.55522700
     9      1    3.05172000    3.60201400    9.29404000
     10      1    12.12561700    14.91010000    10.48592400
     11      1    13.39363300    15.65196200    10.46317600
     12      1    14.09579000    1.91857000    8.97680100
     13      1    4.32755200    6.84062800    11.05652500
     14      1    5.53230300    7.61224300    11.19940100
     15      1    10.54455800    7.84713200    10.79382500
     16      1    10.60717100    9.26208600    11.25243600
     17      1    6.90935200    9.52221700    12.48660100
     18      1    8.19683000    13.04588800    11.48358500
     19      1    9.42194100    13.70426600    11.06879200
     20      1    5.57755100    0.87124200    8.17207900
     21      1    5.56712900    19.54736100    8.06595200
     22      1    1.91469000    17.29883200    8.85956000
     23      1    20.51595300    16.03581000    11.26658400
     24      1    19.37610100    15.60718400    12.18903200
     25      1    17.78902100    5.13147500    9.36590800
     26      1    16.66879300    5.96232700    9.12575000
     27      1    15.42716000    5.34711600    8.65416600
     28      1    15.30197000    3.95862700    8.08610700
     29      1    13.98807300    3.19905700    8.13375800
     30      1    12.72692900    3.93735400    8.40724100
     31      1    14.19270600    5.77777800    9.45696100
     32      1    12.95504200    5.17530400    9.17879200
     33      1    15.41315600    9.42740600    10.32871100
     34      1    16.72109400    10.10090400    10.60691500
     35      1    18.03147900    9.60296800    10.09391600
     36      1    19.21456500    9.86916600    10.91191500
     37      1    10.41094100    19.53394100    9.61979000
     38      1    10.36810500    0.78894800    9.24520700
     39      1    7.87005900    0.74196600    9.50255900
     40      1    9.13187900    1.47447400    9.58561900
     41      1    9.31616400    7.01205300    10.94598700
     42      1    9.31015200    5.70427900    10.39627300
     43      1    7.90777400    3.59370700    9.92606700
     44      1    7.96917800    5.00999100    10.16530200
     45      1    4.50494900    17.41875300    8.90646100
     46      1    5.75217000    16.68504100    9.05375400
     47      1    8.35629300    16.58357800    8.66874400
     48      1    6.99722100    17.26427700    8.56695800
     49      1    1.86216800    9.39862300    12.55632200
     50      1    2.01718600    10.91229200    12.44525500
     51      1    22.91799400    11.76465400    12.01261900
     52      1    21.68411100    11.04039000    11.78223500
     53      1    21.64074300    15.04675600    11.13075800
     54      1    22.75059500    15.31080000    10.21395900
     55      1    3.36777900    15.21315000    9.70152400
     56      1    2.10971600    14.69934800    10.40944300
     57      1    4.42720300    5.42714100    10.46213000
     58      1    3.14101600    4.74371400    10.27356000
     59      1    6.82360500    7.12953900    10.66910600
     60      1    6.79641800    5.85161700    9.87374900
     61      1    3.24706000    11.41444400    11.72506000
     62      1    4.45737700    10.65775200    11.72979400
     63      1    5.70446200    11.54714100    11.79471100
     64      1    6.90620600    11.05907900    12.51203300
     65      1    5.80131400    12.57379100    10.76574600
     66      1    4.55179900    13.23939800    10.54831600
     67      1    3.42224300    12.93111200    11.49561800
     68      1    2.21813000    13.78025000    11.57389900
     69      1    21.40923300    17.35088000    9.20511900
     70      1    22.69899700    16.54644400    9.28400900
     71      1    5.92338100    15.27503000    9.64244400
     72      1    4.66950300    14.68087200    10.18415700
     73      1    7.18456200    14.41688300    9.54049600
     74      1    7.10648900    13.19191400    10.48759400
     75      1    10.69335900    11.73707000    12.11309800
     76      1    12.93998300    9.09060400    11.19038600
     77      1    14.21116300    9.86347200    11.08121300
     78      1    14.36194900    11.04001300    11.94708200
     79      1    15.54324000    11.70714100    12.28086300
     80      1    16.83026500    11.19754100    11.70408000
     81      1    18.10105900    11.93866600    11.93454200
     82      1    18.09538100    13.37199400    12.42595100
     83      1    16.83838800    14.05433300    12.60745300
     84      1    14.39719700    15.21639300    11.44272800
     85      1    15.48894400    16.13454600    11.76927600
     86      1    13.15983800    13.15673700    11.96448300
     87      1    11.90283000    13.84077100    11.47557600
     88      1    11.56887200    1.57986100    8.91674000
     89      1    16.62024500    3.17765400    8.16365800
     90      1    17.86557800    3.75764700    8.69292400
     91      1    14.18117400    7.25505200    9.80894900
     92      1    15.37276600    8.09166900    9.52017200
     93      1    13.03128200    7.61517900    10.79188700
     94      1    11.72367800    6.99282500    10.57442000
     95      1    10.34859600    5.22115300    9.45077700
     96      1    11.69919900    5.93326100    9.54478200
     97      1    10.36295400    3.72848900    9.31494700
     98      1    9.21920600    2.94994800    9.69899500
     99      1    6.63850700    2.93941900    9.43140800
     100      1    6.60791000    1.48954100    9.12424200
     101      1    21.85564400    14.12968700    12.37952600
     102      1    18.95462400    18.77286900    9.03247800
     103      1    11.88993200    9.52996600    12.17360000
     104      1    9.25809000    9.88926600    11.60222200
     105      1    8.47419100    15.07304200    8.94165600
     106      1    20.16019400    16.72484200    9.93859300
     107      1    20.35062200    0.70257300    8.20281200
     108      1    22.68625300    4.61082900    10.66323700
     109      1    1.84390000    5.55736400    10.28545700
     110      1    1.97252000    2.53684200    9.51865600
     111      1    1.80518700    1.63008900    8.26966700
     112      1    19.06931900    1.58414000    8.09370200
     113      1    17.73207900    0.82676100    8.20140600
     114      1    16.76991700    18.26488700    10.93938600
     115      1    15.63788400    17.19900700    10.55026400
     116      1    16.72512600    15.64324900    12.58046600
     117      1    18.05792600    16.44397700    12.23440600
     118      1    23.08970100    13.21261900    12.40792300
     119      1    18.15693700    8.15820300    9.42788600
     120      1    16.63923600    7.52576300    8.97686000
     121      1    4.34681300    1.65243600    7.84964100
     122      1    2.98961800    0.72558000    7.78813700
     123      1    14.23779300    19.27907200    9.72090200
     124      1    15.51468900    20.22332000    9.97069600
     125      1    12.99350400    20.00767100    10.25142700
     126      1    11.65867000    19.08116300    10.26977800
     127      1    6.99714200    18.78695700    8.37867000
     128      1    7.78708700    19.34152200    9.61048400
     129      1    9.19822500    18.61130100    9.73972100
     130      1    9.68192000    17.41665500    8.78383900
     131      1    9.78642200    14.57030000    9.77089400
     132      1    10.80740200    15.57909700    10.26544000
     133      1    14.57357200    13.72488800    11.64723000
     134      1    15.48486700    13.24518200    12.66476500
     135      1    9.45620700    11.02692900    12.60425200
     136      1    8.19083800    11.90275600    12.59189000
     137      1    21.31217600    9.54725500    12.26359700
     138      1    22.58644100    8.57375000    12.46459400
     139      1    5.64576700    3.82105900    8.70251700
     140      1    5.51285900    5.25442500    9.37555600
     141      1    3.13648200    8.67643200    12.29816300
     142      1    4.39465300    9.33490700    12.36537500
     143      1    13.12744000    11.71533400    12.14549100
     144      1    11.96377500    11.05118300    12.37941600
     145      1    20.53804000    13.36463600    12.37679600
     146      1    19.40857100    14.08940600    12.42889800
     147      1    8.02994100    7.66463000    11.32930200
     148      1    8.13699000    8.92298000    11.84710600
     149      1    15.44633900    1.21578900    8.94599700
     150      1    1.88998400    18.80531300    8.69982300
     151      1    20.25374000    9.00230600    11.30209400
     152      1    19.11486200    7.17365000    10.21999800
     153      1    20.29100400    7.62924100    10.81862800
     154      1    19.05368400    5.78966100    9.80766200
     155      1    21.41321800    6.75374400    10.97741700
     156      1    20.22678200    4.92577000    9.96641100
     157      1    22.56201400    7.33246200    11.61081400
     158      1    21.44961500    5.41254100    10.49402700
     159      1    20.25196300    3.52837200    9.48435300
     160      1    1.86007600    6.72499900    11.33008400
     161      1    19.08828400    2.88908900    8.93777900
     162      1    21.52069900    2.80171700    9.29671900
     163      1    3.03486500    7.32062200    11.78639300
     164      1    22.66344500    3.31552400    9.86365300
     165      1    16.52056300    1.68321400    8.37315600
     166      1    21.53665900    1.41723300    8.70924500
     167      1    18.01973900    17.42858500    11.04746000
     168      1    13.26294400    17.13100400    10.25698200
     169      1    22.65572700    0.77019400    8.52298400
     170      1    19.00510200    17.69740500    10.15329200
     171      1    14.38172700    17.88978600    10.30551400
     172      1    11.93242100    17.67141000    9.95529600
     173      1    17.78613100    19.76946100    9.20351400
     174      1    20.27341700    19.50803600    8.91819800
     175      1    22.69234800    19.45188700    8.66428900
     176      1    16.79677200    19.44868700    9.96409800
     177      1    21.40706400    18.77684400    8.97728400
     178      1    10.92424600    16.83462100    9.49941800
     179      1    3.13910700    19.48240300    8.38385900
     180      1    4.29652300    18.79180500    8.27636700
     181      2    10.72346600    11.81003200    10.63481800
     182      2    3.32282400    3.99495100    7.89964300
     183      2    5.83500100    20.33690100    6.91791000
     184      2    4.65361800    8.00385300    10.10271300
     185      2    10.68778300    9.02686300    9.83513200
     186      2    13.57205400    2.19553500    10.26980800
     187      2    8.59748500    14.35943500    12.03591400
     188      2    6.42911300    8.55616700    13.56495000
     189      2    13.01564000    14.80426900    9.33561900
     190      2    20.48899700    16.60553200    12.60104900
     191      2    2.52907300    16.55477100    7.66444400
     192      2    7.68929400    4.04156600    11.23916500
     193      2    8.44918600    1.08577200    10.81670000
     194      2    9.59331700    5.84842000    11.77919100
     195      2    13.71284700    4.87257200    10.39625200
     196      2    16.84717000    5.37411400    10.46030500
     197      2    15.26283600    5.10264800    7.24048700
     198      2    13.23560300    3.67590800    7.01537200
     199      2    10.47994800    19.93436400    8.27227300
     200      2    7.62835700    16.70299700    7.37562700
     201      2    5.16895200    17.49641600    10.11485800
     202      2    2.54147100    14.22543500    9.09159200
     203      2    21.73651900    14.28776400    9.89473900
     204      2    22.63400300    11.38764700    10.65752600
     205      2    1.97640800    10.31050300    13.72217400
     206      2    18.33526400    10.63471400    9.04932500
     207      2    15.81144800    10.48966000    9.51603200
     208      2    17.67390300    10.91947700    12.87060300
     209      2    13.12585200    9.99756800    10.11221400
     210      2    14.21742100    8.09054300    8.62847800
     211      2    14.97401000    10.82543100    13.29764700
     212      2    17.60380400    13.54980700    13.74208600
     213      2    19.92765200    12.20544800    10.33380700
     214      2    12.40901100    6.73491300    11.78656000
     215      2    17.59858900    3.80328300    7.17075500
     216      2    12.33911600    14.10717200    12.81334700
     217      2    14.22802900    16.09937900    12.56954400
     218      2    3.64080200    10.62900400    10.55278300
     219      2    3.37047200    13.88836000    12.51645500
     220      2    10.74438000    6.04786900    8.39866300
     221      2    21.82851200    16.53014600    8.08898900
     222      2    3.99161500    4.44347900    11.47952900
     223      2    11.32336400    2.07490600    7.52664100
     224      2    5.83849700    11.73360400    13.21231200
     225      2    5.06080000    12.39689700    9.56006900
     226      2    10.19849200    3.20490200    10.65181300
     227      2    5.46861200    15.35931200    11.15316100
     228      2    7.12642600    7.16201500    9.21272000
     229      2    7.39709600    12.98063800    9.06128400
     230      2    5.92948900    1.97806600    10.29027700
     231      2    6.97242500    19.33397700    10.78089500
     232      2    16.40817300    15.92185300    13.90327600
     233      2    16.31255500    18.76124800    12.24645900
     234      2    18.20136600    17.26742400    13.37648200
     235      2    15.43680500    20.96882100    11.23271000
     236      2    13.20787600    20.33297700    11.60249400
     237      2    11.27987900    19.00143600    11.64109700
     238      2    8.99221700    17.82273300    10.99756800
     239      2    10.57488800    15.92751200    11.62883200
     240      2    8.09485300    12.49815800    13.88351200
     241      2    9.55126800    10.47337200    13.92268300
     242      2    14.82388100    13.41716500    13.85040500
     243      2    16.04722200    16.43606200    9.36886200
     244      2    14.21516800    19.29429200    8.24393600
     245      2    10.50747100    13.74573100    8.82282400
     246      2    10.14420300    17.65594300    7.46588100
     247      2    7.84666400    19.12308700    7.31780200
     248      2    18.88207400    8.37334400    8.29116700
     249      2    16.56303000    7.79290600    7.60765600
     250      2    19.14753700    2.05802500    6.67905800
     251      2    17.53423700    20.35832600    6.82257300
     252      2    15.12650200    13.31333500    10.43202400
     253      2    22.45648400    7.93110200    13.80820500
     254      2    20.68166000    9.65773900    13.53147600
     255      2    23.44170800    12.96848900    13.79805600
     256      2    21.95817800    14.88109900    13.56648300
     257      2    2.40658800    1.78732400    10.71206600
     258      2    22.93858500    4.08137800    12.03906000
     259      2    4.50454500    2.14043100    6.51638400
     260      2    2.68164300    20.42483500    6.46972000
     261      2    1.42178100    2.44761400    7.17909900
     262      2    5.09892400    6.03424000    8.22286200
     263      2    6.27779400    4.03544500    7.38686100
     264      2    1.51880900    6.12873400    8.95617300
     265      2    19.50326500    15.71210500    9.19362400
     266      2    8.63737000    14.51703200    7.64346800
     267      2    20.64603600    20.36608900    6.83721200
     268      2    18.59851600    18.00713300    7.83572700
     269      2    11.83184700    8.78813300    13.34357000
     270      2    8.57144600    10.50230000    10.41874700
     271      3    20.15609000    15.00170800    9.03316700
     272      3    8.01850000    15.08761800    7.14002100
     273      3    20.55652000    0.92084700    6.21052600
     274      3    18.45140500    18.69079800    7.17348200
     275      3    21.40140200    15.68187100    13.47785500
     276      3    2.07627500    6.92359300    8.85418800
     277      3    23.14078300    4.84550400    12.57755000
     278      3    1.61452400    1.33061500    11.09611800
     279      3    2.07726100    3.19595200    7.19212400
     280      3    16.69378100    16.90520300    8.76783800
     281      3    17.01450700    18.67953500    12.90471500
     282      3    18.43724400    2.72357400    6.58618000
     283      3    18.26558500    20.77676600    6.31109300
     284      3    18.93386800    17.99171600    13.14760800
     285      3    17.20160500    15.81253400    14.45194100
     286      3    1.62859300    13.84026200    14.21286000
     287      3    11.84086900    9.44210000    14.05617200
     288      3    9.02522600    10.12909800    9.62444800
     289      3    9.90960900    16.65186900    11.54198300
     290      3    9.77910300    13.33416000    8.33227800
     291      3    9.31762300    11.25596500    14.45092900
     292      3    7.47266800    13.33124400    13.80597400
     293      3    21.19798700    10.12162600    14.25554200
     294      3    23.20163500    7.27003500    13.94947300
     295      3    15.79635900    20.31174700    11.84191000
     296      3    14.13065900    20.73811500    11.59132200
     297      3    12.05836200    19.20343600    12.18100200
     298      3    8.32679900    18.35410700    11.50803700
     299      3    6.29185100    18.59065100    10.57134400
     300      3    2.17901800    21.19301400    6.09762500
     301      3    5.12872400    2.90113200    6.59133600
     302      3    7.35191900    19.80110400    6.79694400
     303      3    9.36465700    18.10622400    6.97510400
     304      3    14.05057200    18.41799700    7.89871300
     305      3    17.52559100    7.86291000    7.27619400
     306      3    18.73084300    10.00558400    8.39679900
     307      3    15.36761300    13.06369900    14.58590200
     308      3    14.58857000    13.65803900    9.70870800
     309      3    5.44430000    6.97954800    8.33273000
     310      3    5.80489100    4.94806100    7.24511900
     311      2    6.79708800    17.49498600    30.25431300
     312      3    6.47336100    18.33319900    30.65752200
     313      3    -6.19054700    19.88657400    26.71781200
     314      3    7.72565300    17.74329900    29.97787900
     315      4    2.28744400    5.42061100    14.50672600
     316      2    9.45775400    14.49642900    27.48000500
     317      3    9.54264500    14.44647200    28.49870100
     318      3    9.49568400    15.40979700    27.25485600
     319      2    17.10437400    17.40316600    24.75725700
     320      3    17.85836400    17.98947900    24.58266300
     321      3    16.30477500    17.69949700    24.31942000
     322      2    2.65031300    6.18389800    19.57950300
     323      3    1.73287000    5.95904200    19.39406200
     324      3    3.04908200    6.59808100    18.75519600
     325      2    17.63568100    6.69735500    12.88303400
     326      3    17.53401000    6.08428500    12.10449500
     327      3    16.75207900    7.18294200    13.10512400
     328      2    2.87653100    19.19839900    18.65096900
     329      3    2.58754100    20.04721100    18.44301600
     330      3    2.16047400    18.79335600    19.23665900
     331      2    3.17835900    2.42595900    13.72573800
     332      3    3.44380500    2.74996200    14.61992100
     333      3    2.88281100    3.22189200    13.23196300
     334      2    22.02883900    27.35957500    28.22151800
     335      3    22.54020900    27.59483000    27.42280400
     336      3    21.35386800    26.75865700    27.77353300
     337      2    -2.74224600    6.93811100    30.05492200
     338      3    18.63451200    7.34656100    30.69724700
     339      3    -1.95393300    7.45191700    30.36274100
     340      2    6.79349400    4.40988100    31.66743500
     341      3    5.93564700    4.65520600    31.26024400
     342      3    7.24883500    5.02786500    31.14151600
     343      2    6.49530600    -0.31321800    25.99741600
     344      3    7.00602100    0.23344500    25.41029400
     345      3    6.02189500    0.31002900    26.64040200
     346      2    3.73571100    7.32624200    16.65443400
     347      3    2.84487700    7.72581200    16.46439800
     348      3    3.66076800    6.49542800    16.07462000
     349      2    16.33159100    7.00214900    31.11212900
     350      3    16.24510000    6.09531200    30.65391200
     351      3    15.81697700    6.88128900    31.95268800
     352      2    21.77593600    23.25270300    27.74379000
     353      3    22.08532500    22.36377300    27.44961700
     354      3    21.78414500    23.25919900    28.72688700
     355      2    -3.12710900    3.37826600    15.88499700
     356      3    -3.56008700    4.20650100    16.08708000
     357      3    -2.38534800    3.63655000    15.25910300
     358      2    1.04284000    8.66975800    25.84208900
     359      3    0.22086600    9.09663600    25.50127800
     360      3    1.19504700    7.84904200    25.30828900
     361      2    17.40139200    5.84425000    16.05731800
     362      3    17.64552100    6.10943700    15.10563400
     363      3    17.73932500    6.60200100    16.57491700
     364      2    15.37280800    7.90734800    13.90528100
     365      3    14.48695700    7.59159400    14.14189500
     366      3    15.37512200    8.82510600    13.62072800
     367      2    15.06038500    22.53059200    28.46460000
     368      3    14.74396000    23.22143700    27.84519200
     369      3    14.25126200    21.99267000    28.62909500
     370      2    7.64560000    21.97130200    30.38517000
     371      3    7.42000300    22.80453100    30.93151700
     372      3    6.93920900    21.29114900    30.54736700
     373      2    9.63519400    17.32914500    29.35333800
     374      3    10.35917600    17.66360700    28.74336100
     375      3    9.69512100    16.35375800    29.51776500
     376      2    6.10905700    4.88029600    27.02717000
     377      3    5.29396300    5.49016500    27.21820600
     378      3    6.16471800    4.06130100    27.54033900
     379      2    -2.54757600    19.51544200    27.78824600
     380      3    -1.97314400    19.86613800    28.53870600
     381      3    -4.51881500    23.45299700    27.33539200
     382      2    6.39700300    11.11563600    18.94932500
     383      3    7.05902100    10.63291800    19.48423800
     384      3    5.56426900    10.53768300    18.96703300
     385      2    14.62534600    18.20267100    24.04133000
     386      3    14.14093900    17.71918700    24.75955200
     387      3    14.23308700    17.88336800    23.22682800
     388      2    16.84169400    19.40187300    18.04804500
     389      3    16.67781100    20.25168400    18.53161100
     390      3    16.96406000    19.74685100    17.14266700
     391      2    18.70529900    15.00643700    16.00863600
     392      3    19.40622500    14.37497600    16.07723600
     393      3    18.18415500    14.87700200    16.81264700
     394      2    7.15076900    -0.44779900    15.04311900
     395      3    6.38890600    -0.37679800    14.49370200
     396      3    7.95351500    -0.22505500    14.46188400
     397      2    -5.22120100    9.55439400    23.70691900
     398      3    16.47824300    8.68588600    23.31330900
     399      3    17.25334700    9.99978200    22.95185900
     400      2    23.04251700    14.03194400    22.79013800
     401      3    23.33314700    13.12309700    22.68671800
     402      3    23.61598800    14.61043200    22.24752800
     403      2    6.53509600    14.09384300    30.03884900
     404      3    6.41511200    13.27877500    30.58992800
     405      3    6.13432400    14.88840500    30.44109700
     406      2    -7.62961300    5.89998800    24.45980500
     407      3    -8.29021100    6.58103300    24.29239500
     408      3    14.98790000    6.27655800    25.09812500
     409      2    7.47357600    6.02010100    29.23254800
     410      3    7.09137400    5.83101700    28.34296200
     411      3    7.24838700    6.95482200    29.35513900
     412      2    20.43634400    20.83358200    20.16870000
     413      3    19.80279500    20.97778500    20.86349500
     414      3    20.30902100    21.46825400    19.40108100
     415      2    15.86899800    14.20363600    28.26139600
     416      3    16.08191100    15.14389800    28.20874200
     417      3    16.14596400    13.97197800    27.36429400
     418      2    20.00207100    15.47859100    27.11693400
     419      3    20.57303400    16.22698400    26.89233200
     420      3    19.43469600    15.30301800    26.34781100
     421      2    16.99801100    6.57044000    25.89595600
     422      3    16.94405000    5.89533200    26.58209200
     423      3    17.34362400    7.38646200    26.40579800
     424      2    4.42174400    10.97452500    24.73055500
     425      3    4.59129900    10.02356000    24.84459100
     426      3    4.21337700    11.35647500    25.60490000
     427      2    0.58467900    21.38805200    25.56114600
     428      3    1.57049100    21.40490500    25.46712900
     429      3    0.24438900    20.45123900    25.48085800
     430      2    5.41986000    6.01588400    13.72428300
     431      3    4.56383900    5.66394200    13.99227000
     432      3    6.13801900    5.49730800    14.10433300
     433      2    16.86283300    10.29836800    26.39762100
     434      3    17.40285100    9.70469500    26.87432100
     435      3    16.92152800    9.91688700    25.46494900
     436      2    0.99692900    17.05491800    26.68526800
     437      3    1.17550200    17.02054800    27.63897700
     438      3    1.07026600    16.21184200    26.22939300
     439      2    10.35907600    22.25231700    29.01602200
     440      3    10.38280100    23.20393200    29.14581900
     441      3    9.65929400    21.90719400    29.62026200
     442      2    8.44045600    -2.47993300    26.63394900
     443      3    8.64930200    -2.04781300    27.49563200
     444      3    7.67476500    -1.94581200    26.23151200
     445      2    14.60596900    9.97755100    17.19084100
     446      3    14.22240600    9.72427600    18.08729100
     447      3    15.04809100    9.11085200    16.93614800
     448      2    14.47422100    14.64452700    23.39773800
     449      3    15.00233800    15.01715200    22.62539900
     450      3    15.13412100    14.16823300    23.89164400
     451      2    6.79763800    21.92867100    16.43744900
     452      3    6.95268200    22.59657500    15.69280700
     453      3    6.75802100    21.02736100    15.94461600
     454      2    2.19700600    10.76234100    28.31325300
     455      3    1.48179300    10.40638400    27.75750400
     456      3    2.68611800    11.54986900    27.86835900
     457      2    5.52760600    3.12812200    24.59701000
     458      3    6.17263200    2.35851600    24.57592800
     459      3    5.67034500    3.64879100    25.42544900
     460      2    8.06157300    8.52792900    17.10682000
     461      3    7.71166600    8.73237800    16.17261900
     462      3    8.99406800    8.82601800    17.15578000
     463      2    4.78665400    21.44752100    19.46223300
     464      3    5.61880600    21.27553000    19.93517200
     465      3    4.68126300    2.24783500    19.62113100
     466      2    3.82247700    2.39650000    16.46250800
     467      3    4.69039400    2.14899200    16.78676700
     468      3    3.22867100    1.81614900    16.99524600
     469      2    21.16400000    8.59027800    19.01570200
     470      3    20.43214000    8.25595000    18.44496800
     471      3    21.49673300    7.72327200    19.45096600
     472      2    22.62967900    0.18027100    11.71985700
     473      3    22.42864200    0.31566200    12.71062100
     474      3    21.69501700    0.49704300    11.40297100
     475      2    20.27390700    9.80169900    24.98191300
     476      3    19.32826600    9.56127800    24.84695200
     477      3    20.33993000    10.24751800    25.84740400
     478      2    4.94362400    15.33427300    24.44642600
     479      3    4.55656900    15.71519900    25.24329400
     480      3    4.96888900    15.94108200    23.69404800
     481      2    24.45592100    14.53029400    15.64743900
     482      3    23.78959700    14.81357600    16.32323300
     483      3    24.89157500    13.76276000    16.00110000
     484      2    12.11935200    10.37842400    15.58330700
     485      3    12.99319600    10.07359100    15.92994500
     486      3    12.16657400    11.32938300    15.42492200
     487      2    22.03038400    7.07130300    21.37532800
     488      3    -0.98317000    6.90812900    21.37907400
     489      3    22.42219500    6.16954900    21.71584300
     490      2    11.23914200    11.19483200    26.15237800
     491      3    11.54293300    12.13414000    26.43471500
     492      3    10.73675100    11.58066700    24.80808100
     493      2    11.07750500    -2.15869800    25.05089600
     494      3    10.15286100    18.11496000    25.47477000
     495      3    11.18837100    -1.28472300    24.55745900
     496      2    8.69714800    17.29284700    21.97305500
     497      3    8.20362900    17.02457200    22.79122000
     498      3    8.24285700    16.81256900    21.24964000