

1044 atoms
5 atom types 

   0.0000000000   21.2725930491 xlo xhi
   0.0000000000   21.4687824047 ylo yhi
   0.0000000000   70.0 zlo zhi

Masses

     1   12.01100000
     2   15.99900000
     3   1.00800000
     4   35.50000000
     5   23.00000000

Atoms # atomic

     1      1    15.91347400    1.31378900    9.28434600
     2      1    16.83304200    4.60830400    11.20835500
     3      1    5.49988200    11.54260300    7.43228900
     4      1    1.44244900    18.92702100    8.84224900
     5      1    4.05197800    20.99954800    10.54226300
     6      1    18.88655500    8.11366700    9.91948700
     7      1    18.17484500    9.42271800    9.87400200
     8      1    20.36838000    5.65983600    10.04427200
     9      1    18.84088300    5.52702000    9.95148200
     10      1    6.22860300    12.71874800    8.05011800
     11      1    4.02301300    9.21852500    8.41964500
     12      1    3.26435400    7.97095400    8.73301500
     13      1    4.05623900    6.91269800    9.45598000
     14      1    3.32355600    5.73061300    10.04735800
     15      1    5.48507800    6.72485100    9.05319500
     16      1    6.23200800    8.00364400    8.86918500
     17      1    5.52112400    9.26267300    8.76024200
     18      1    6.19888900    10.41379500    8.17869300
     19      1    10.55198900    12.84786200    8.04782800
     20      1    9.81712700    11.46615800    7.74594300
     21      1    8.20998700    7.05422200    10.30309800
     22      1    7.63876500    8.15049900    9.45149600
     23      1    7.69277500    5.70054100    10.13432200
     24      1    6.25627200    5.48277100    9.63756400
     25      1    3.41229500    0.83197600    10.45258900
     26      1    1.99476900    20.01178400    9.62302900
     27      1    3.24411500    19.77957900    10.45948500
     28      1    3.81612000    18.44174400    10.58767900
     29      1    3.19091700    17.29385000    9.82860100
     30      1    3.83084800    16.00427100    9.66531600
     31      1    5.42442800    15.94526000    9.86042600
     32      1    6.17148400    17.10865000    10.44273300
     33      1    7.61651800    19.68368700    11.03153100
     34      1    8.29350700    18.56208600    10.29171200
     35      1    5.44083300    20.96961600    11.09461700
     36      1    6.16921900    0.75506500    11.16346100
     37      1    14.46855200    1.28061100    9.38745100
     38      1    16.04683500    17.87682500    8.29390400
     39      1    16.81144100    16.56982600    8.06405900
     40      1    20.46814900    20.22166400    9.03688300
     41      1    -0.02192000    18.98050100    8.53059300
     42      1    21.05344800    21.16446500    10.06661100
     43      1    20.28012300    0.93131300    10.34835800
     44      1    18.24750900    2.38387000    9.93491000
     45      1    18.94733200    1.09214400    9.67818400
     46      1    16.73587400    2.27185600    10.10948500
     47      1    16.12886400    3.28256700    10.95203200
     48      1    16.07506400    5.85244800    10.88578600
     49      1    18.91836400    20.15379700    8.82180100
     50      1    18.15205000    6.89512800    9.51000100
     51      1    6.13772800    19.71473100    10.64018400
     52      1    18.24264700    18.84842900    9.13542900
     53      1    1.34675300    16.55432100    7.99071400
     54      1    2.24659700    17.69587700    8.65417200
     55      1    3.31422900    10.49052800    8.55809900
     56      1    3.90012400    11.44519900    7.53729200
     57      1    7.69473100    10.07995400    7.85734700
     58      1    8.34128700    11.48259100    7.47812400
     59      1    9.68477100    7.26576500    10.66276200
     60      1    13.79181900    2.51480900    9.96993000
     61      1    14.59667600    3.28421100    11.13980000
     62      1    18.34421500    4.71385100    11.11197700
     63      1    18.92546700    3.26503900    10.97128800
     64      1    18.10208900    21.27939400    9.52023600
     65      1    16.75932700    21.52133800    8.82876300
     66      1    5.38607700    18.42833300    11.03023800
     67      1    16.69210200    6.84021300    9.85946100
     68      1    10.43249800    7.97370600    9.49623000
     69      1    14.57077000    20.24461900    9.17010800
     70      1    13.84086000    19.00913000    8.85917600
     71      1    14.62075400    17.78650700    8.51912900
     72      1    13.90348600    16.60037600    8.50588800
     73      1    14.65538200    15.36503500    8.50890800
     74      1    16.05737900    15.34925700    8.33967400
     75      1    -0.20569100    2.14701400    10.56809900
     76      1    20.40546800    3.31948200    10.65051000
     77      1    -0.21217600    4.51633400    10.33105500
     78      1    21.01859300    14.05082400    8.16646200
     79      1    13.94673300    11.71188400    9.16320900
     80      1    14.64757500    10.57544300    9.53604000
     81      1    12.48009100    9.34452400    9.46606300
     82      1    13.92819200    9.35799700    9.76390200
     83      1    14.61633400    5.78960800    10.79413200
     84      1    13.92287300    7.01004200    10.50442200
     85      1    14.59385100    8.14983500    10.16273800
     86      1    16.03596900    8.18201600    10.07456400
     87      1    16.74659900    9.36301100    9.87435200
     88      1    16.07703400    10.54968500    9.77900600
     89      1    16.78688200    11.74673200    9.31508600
     90      1    16.09008600    12.94264300    9.13297900
     91      1    14.01954400    14.11295700    8.73473600
     92      1    14.70525500    12.91112500    8.98026600
     93      1    16.73543400    14.13670300    8.69018700
     94      1    12.57291100    14.07825900    8.69362100
     95      1    11.96658700    12.83493100    8.49873900
     96      1    12.62441300    11.66152900    8.68717100
     97      1    11.87435200    10.44214000    8.76763100
     98      1    10.54510200    10.34460300    8.40039600
     99      1    11.88495000    8.20998400    9.86164800
     100      1    12.54753500    7.05581300    10.42118200
     101      1    11.75143100    5.92118700    10.79260600
     102      1    13.88715900    4.65652700    11.00253400
     103      1    12.48690300    4.68927700    10.94951500
     104      1    11.73389600    3.42823200    10.91305200
     105      1    12.40255600    2.32744200    10.43915400
     106      1    11.78078500    1.01468400    10.43490700
     107      1    12.50601000    21.34861900    9.89435500
     108      1    13.83178500    21.38049100    9.46192400
     109      1    11.79318000    20.13133000    9.71093300
     110      1    12.46124600    18.95619600    9.27296000
     111      1    11.77480400    17.75472600    9.11459300
     112      1    12.46867800    16.58814200    8.65755100
     113      1    11.82088200    15.32365800    8.63337000
     114      1    10.38930500    15.26755100    8.69492300
     115      1    9.66626300    16.39990000    9.15115600
     116      1    10.36827800    17.64941800    9.38907800
     117      1    9.66438900    18.74159800    9.90329600
     118      1    10.40188000    20.05636600    10.02590800
     119      1    9.71018800    14.02102900    8.34686600
     120      1    8.27117400    2.04385600    11.03272700
     121      1    7.63229600    0.80886200    11.00522600
     122      1    8.31948000    21.09547800    10.88299400
     123      1    9.70237700    21.14072000    10.62248700
     124      1    10.41429000    0.88817700    10.79204800
     125      1    9.70085600    2.08684500    11.11856700
     126      1    10.37691100    3.39198900    11.20561300
     127      1    9.70755400    4.68562100    11.15479500
     128      1    8.31147400    4.58815200    10.93318900
     129      1    7.60789600    3.32582800    10.94444200
     130      1    3.35839600    3.31658500    10.63607500
     131      1    4.07042100    2.09905700    10.83183400
     132      1    5.49522800    2.05077500    10.92046300
     133      1    6.16500100    3.26108800    10.70543700
     134      1    5.47645700    4.40933100    10.31137600
     135      1    4.09782300    4.46142000    10.32636100
     136      1    1.20784900    2.13870700    10.59643100
     137      1    1.95560300    3.31587800    10.66905800
     138      1    1.25855800    4.47794500    10.26008700
     139      1    1.88219900    5.66141000    9.87763200
     140      1    1.17469700    6.88359100    9.52435200
     141      1    1.85017000    8.02788000    9.08348100
     142      1    1.11832600    9.18979700    8.80220300
     143      1    1.79199300    10.37073600    8.34539800
     144      1    1.03973400    11.60979400    8.18883500
     145      1    1.95076700    15.19491900    8.27946700
     146      1    3.30229100    15.06249000    8.69728800
     147      1    1.19827200    13.99211800    8.17684700
     148      1    1.88863800    12.78162600    8.01856500
     149      1    3.29175700    12.74894200    7.95636700
     150      1    4.06189000    13.89540300    8.27354400
     151      1    5.50313100    13.88335300    8.45161400
     152      1    6.16192000    14.94413700    9.08794600
     153      1    7.57726800    15.05510200    8.96980800
     154      1    9.75836800    9.31397200    8.98989300
     155      1    8.40497400    9.28829300    8.91678600
     156      1    16.80613500    19.00623900    8.85307200
     157      1    16.05792200    20.18473600    9.11017800
     158      1    1.90007400    0.85679200    10.44102000
     159      1    1.24551100    21.18625300    10.08144500
     160      1    8.28922400    16.30436100    9.40043800
     161      1    7.59750300    17.38427000    10.06414000
     162      1    8.30152800    13.88954000    8.49278400
     163      1    7.63453800    12.69207500    8.08194700
     164      1    20.34180600    8.07675400    9.51411800
     165      1    -0.26962700    6.89151800    9.68313400
     166      1    21.02261700    16.55914500    8.20722000
     167      1    20.32369600    15.32982600    8.24473000
     168      1    20.42162300    17.83022500    8.25023600
     169      1    18.92269300    15.38125800    8.38618900
     170      1    18.97892800    17.80329300    8.41635100
     171      1    20.26958800    12.92969400    8.39259900
     172      1    18.24531900    16.60241500    8.26030200
     173      1    18.17297900    14.16517900    8.57656600
     174      1    20.91748400    11.61094700    8.48232400
     175      1    18.87208900    12.95224200    8.60590000
     176      1    20.29201700    10.47555200    9.02605200
     177      1    18.20756300    11.76978500    9.13069800
     178      1    20.97231100    9.21098500    9.04400900
     179      1    18.92380700    10.58368700    9.33615900
     180      1    10.38882400    5.89239200    10.86350900
     181      2    2.88923500    16.25172600    10.73720800
     182      2    2.27429000    20.05264900    8.17194700
     183      2    21.08068700    20.26508900    7.77183800
     184      2    2.93682900    18.90259400    11.60469800
     185      2    5.94251700    15.94585700    11.19813800
     186      2    5.80598100    11.44172800    6.07606500
     187      2    20.40084100    21.23116500    11.30680100
     188      2    16.40816700    17.41739100    6.91685400
     189      2    3.96932000    0.38422600    9.26099900
     190      2    5.61617400    0.09925500    12.45294600
     191      2    7.84326500    19.48477900    12.40201300
     192      2    3.64515800    8.31045900    7.33723400
     193      2    6.05313400    10.30519800    9.61930300
     194      2    18.95173800    2.07058500    8.69136400
     195      2    10.53044700    12.25514600    6.71582900
     196      2    18.84315100    8.94303400    11.16248000
     197      2    15.07021200    1.60356700    8.12777100
     198      2    3.91615300    6.86989500    10.88072700
     199      2    5.89789200    7.09329000    7.72856600
     200      2    16.57860800    2.06746800    11.49290000
     201      2    7.40519800    8.07416000    10.94791300
     202      2    18.65419000    4.74579600    8.81931700
     203      2    7.31980500    5.20453600    8.78276000
     204      2    16.41024400    5.47877400    12.30888200
     205      2    18.70147500    20.31267400    7.41017900
     206      2    18.28360200    6.99512100    8.09623900
     207      2    18.28742600    18.41955900    10.54582200
     208      2    6.04249100    19.59361600    9.14543500
     209      2    1.42555200    16.68909500    6.56587600
     210      2    3.34689200    17.88692700    7.67813800
     211      2    5.35781400    18.36934100    12.39578100
     212      2    3.33541900    11.05867800    6.28310300
     213      2    3.28326500    11.01367800    9.91854900
     214      2    17.73593300    20.97665400    10.91500000
     215      2    8.20905000    11.61105400    5.96852200
     216      2    16.64952700    21.60887000    7.39567600
     217      2    7.72086000    9.22331100    6.66790300
     218      2    18.77430700    2.64311500    12.27708100
     219      2    18.86887700    5.28220500    12.30396300
     220      2    13.58002800    3.42425100    8.91778600
     221      2    16.02165000    6.30762300    8.65100900
     222      2    14.29682500    2.74607600    12.46767900
     223      2    9.78530200    8.21348400    11.72796100
     224      2    10.34773600    7.03676700    8.39087100
     225      3    19.57807000    20.39332000    6.99743400
     226      3    18.49848600    5.46428300    8.11200300
     227      3    19.17168000    18.01236000    10.78222300
     228      3    6.11494600    20.43397900    8.63036300
     229      3    18.15380500    20.09592400    11.14921500
     230      3    2.39739800    16.79781700    6.33770600
     231      3    3.46099100    18.82601400    7.60302600
     232      3    4.92057800    17.58128900    12.69550000
     233      3    4.07182900    11.26018400    5.63204000
     234      3    4.15504600    10.83481200    10.42549300
     235      3    7.04431800    11.47121600    5.98781900
     236      3    17.43246500    21.06284500    7.08978100
     237      3    8.12326800    10.02129600    6.01668600
     238      3    19.57987200    2.46461600    12.79306700
     239      3    18.39734300    5.19933100    13.16988900
     240      3    14.05307100    3.04188800    8.10692200
     241      3    16.79184900    6.58328500    7.93508700
     242      3    14.52241800    1.79135300    12.38041200
     243      3    9.34212800    7.85021200    12.53622700
     244      3    9.96191700    7.54938900    7.61845000
     245      2    6.05918900    5.33311600    29.82044200
     246      3    5.08181200    5.15513900    29.73947100
     247      3    6.76170100    4.77462900    29.15857700
     248      3    6.16878000    6.37349900    29.62219000
     249      4    21.26100500    17.68790400    11.40938200
     250      2    17.52815800    10.92924700    29.40011200
     251      3    16.94574200    10.20416700    29.66009500
     252      3    17.73582500    10.62211400    28.51248900
     253      2    1.99423000    2.38769400    28.40391300
     254      3    1.96418200    1.41249000    28.77288800
     255      3    22.41047700    2.82375400    28.67103400
     256      2    14.72630200    0.13809100    12.14100500
     257      3    14.36828500    -0.70802700    12.49745400
     258      3    15.73627400    0.07227100    12.01305700
     259      2    17.62561400    7.89673700    13.62725600
     260      3    17.88424900    8.39707900    14.37342500
     261      3    18.41059900    7.79633900    13.05990800
     262      2    2.67925600    17.77943400    19.58800900
     263      3    2.43555700    18.61009400    19.06947300
     264      3    3.45786600    17.60228900    19.01825100
     265      2    13.38039900    0.33848300    18.11346200
     266      3    13.77538500    1.06528300    17.57038200
     267      3    12.49669600    0.56658800    18.32092700
     268      2    11.32710800    9.31697000    21.77542300
     269      3    11.95008200    8.65257400    21.45036100
     270      3    10.63328100    8.74392700    22.10817900
     271      2    22.09886000    15.17013500    21.88538000
     272      3    21.77973200    15.59913300    21.06256700
     273      3    21.82462100    15.82523800    22.55612000
     274      2    15.44364100    20.02134700    22.28628500
     275      3    15.55009500    20.36726400    21.35682300
     276      3    15.31282800    20.75181800    22.91257300
     277      2    8.20563200    16.12942300    26.79822500
     278      3    7.62144600    15.30680400    26.78401200
     279      3    7.86146000    16.68407800    27.53655400
     280      2    4.61131000    17.43511400    17.56335400
     281      3    5.38869900    16.88982000    17.92449500
     282      3    4.92885600    17.60748700    16.65097800
     283      2    -1.52600600    3.50611400    16.62393300
     284      3    -0.56611800    3.70702300    16.79780200
     285      3    -1.61688800    3.85385100    15.68771600
     286      2    20.46945800    19.58953900    16.52539300
     287      3    21.03485700    19.38872000    15.71876800
     288      3    20.15395500    20.52523200    16.35657600
     289      2    17.70734800    22.59622200    20.11066400
     290      3    18.58084300    22.20873300    20.05409200
     291      3    17.68165400    23.41036200    19.48442100
     292      2    4.10678300    14.11773200    24.53926100
     293      3    3.35121700    13.45957900    24.73808700
     294      3    3.94411300    14.53328300    23.71191600
     295      2    6.29440900    13.94271600    26.42822800
     296      3    6.63648300    13.13592300    25.94790600
     297      3    5.52191100    14.09127900    25.89496600
     298      2    -2.93558400    8.60909600    17.86737600
     299      3    -1.95915500    8.37261200    17.66144600
     300      3    -3.36579800    8.65885100    16.99240100
     301      2    12.56757500    22.77217900    23.19901500
     302      3    12.28826100    21.93920700    22.72016000
     303      3    13.42191900    1.12765100    23.54366700
     304      2    9.93942800    16.84669500    23.83812100
     305      3    10.67829700    16.17925300    23.99530200
     306      3    9.20855800    16.45238900    24.33616400
     307      2    11.25409600    4.97740600    20.27785900
     308      3    10.31807600    4.67027800    20.32360200
     309      3    11.79958600    4.16404200    20.57667900
     310      2    22.21343200    18.70712300    25.08473200
     311      3    21.31787100    18.30386900    25.00212100
     312      3    22.44512700    18.80705100    24.10161400
     313      2    7.51872000    13.44863600    12.42524400
     314      3    7.67950600    12.52528200    12.22489800
     315      3    6.72853900    13.67773200    11.88785200
     316      2    6.34349500    14.21372200    16.31364500
     317      3    6.59715200    14.88559800    15.60511900
     318      3    5.36616600    14.36573900    16.40822300
     319      2    7.12168200    10.26971800    13.55680100
     320      3    7.88843300    10.58602400    12.98818600
     321      3    7.23029400    10.70635900    14.43229000
     322      2    10.54002600    19.56132300    17.67538300
     323      3    10.91247500    -2.39060700    18.48309600
     324      3    11.24353100    19.51646800    16.95948100
     325      2    20.77174400    4.00823700    28.54767400
     326      3    19.93318600    3.52939800    28.45126900
     327      3    20.59732600    4.58862700    29.35331200
     328      2    16.41358400    18.21058300    17.48731600
     329      3    16.11185500    19.12197700    17.55169800
     330      3    17.11088400    18.22748400    16.78236200
     331      2    11.81840500    18.55352800    12.55717000
     332      3    11.08733700    18.06318100    12.94178200
     333      3    11.45886500    19.51595300    12.61804800
     334      2    16.73889400    15.25482000    17.98363100
     335      3    16.34173800    16.09765600    18.12233500
     336      3    16.03598400    14.75090200    17.45799300
     337      2    14.64007800    8.18462200    28.12078700
     338      3    14.54247200    8.26158300    27.12211200
     339      3    13.91431800    8.76371700    28.51129300
     340      2    0.33695700    5.61807100    19.65179500
     341      3    1.18509400    5.88185000    20.15113700
     342      3    -0.37038300    5.45831500    20.31181000
     343      2    13.65331300    17.52878600    16.72163600
     344      3    14.67352000    17.63588700    16.70262100
     345      3    13.47229200    16.86712800    15.99371300
     346      2    14.88611000    4.52033600    20.41037400
     347      3    14.88147700    5.26154400    19.69261100
     348      3    14.09144500    3.95698500    20.31422300
     349      2    9.86320200    10.18975300    26.16726900
     350      3    9.20218900    10.69081300    25.66002300
     351      3    10.63629100    10.00153700    25.57107500
     352      2    2.32275800    18.06438100    27.46071200
     353      3    1.85321100    18.08681900    26.59403000
     354      3    2.73572800    17.16662400    27.49099300
     355      2    20.62594000    5.22968700    25.77611200
     356      3    19.72074700    5.19257300    25.40880600
     357      3    20.64718200    5.21547300    26.76274300
     358      2    11.16374100    3.24069700    24.68185600
     359      3    10.23726200    3.19343400    24.33231200
     360      3    11.63004600    2.51282600    24.19834900
     361      2    3.54823800    4.80725600    29.12089200
     362      3    3.35644600    5.23097800    28.22433700
     363      3    3.14283000    3.88733400    29.05607400
     364      2    7.67645000    4.21411700    28.39401800
     365      3    8.58251100    4.06785400    28.79327000
     366      3    7.38980200    3.23314300    27.97994200
     367      2    1.95015300    -1.59804800    18.06575000
     368      3    2.13634700    20.59401500    18.65654100
     369      3    1.01183800    19.93572600    17.85362700
     370      2    6.88866200    16.20984600    14.38062500
     371      3    7.76749100    16.61417400    14.23506800
     372      3    6.54819100    15.82513200    13.53070500
     373      2    13.73490100    10.23879000    19.82117000
     374      3    12.97750700    10.04628200    19.23886100
     375      3    13.91221400    9.34411100    20.04217200
     376      2    11.10643500    12.86515100    22.49708200
     377      3    12.02360200    12.61541300    22.64065200
     378      3    11.17798100    13.42564600    21.62753300
     379      2    16.63155000    7.22934700    24.32154800
     380      3    17.05376600    7.86655400    24.95890800
     381      3    15.69925700    7.31433100    24.54487400
     382      2    11.49788400    2.35747100    14.06441900
     383      3    12.29418500    2.87261200    14.02434600
     384      3    11.68225300    1.43613900    13.70536400
     385      2    16.79091100    8.03722500    29.78683500
     386      3    16.03190800    8.08815700    29.12358500
     387      3    16.40270000    8.03961700    30.70100000
     388      2    2.02048200    -0.26265800    29.36069500
     389      3    1.44415800    -0.80020100    29.98265600
     390      3    2.92387300    -0.53907800    29.61471900
     391      2    2.46631900    0.63038800    13.77757000
     392      3    1.66592100    0.12071200    13.61349600
     393      3    3.19918800    0.16372700    13.38394600
     394      2    4.25058400    19.57624600    25.20011700
     395      3    4.04517300    18.65998500    25.32547000
     396      3    4.89945800    19.89757900    25.92010100
     397      2    9.16529300    20.27684200    26.76194000
     398      3    9.71326400    20.86753100    27.33998900
     399      3    9.82759000    19.81765600    26.13073700
     400      2    6.31260700    0.55298600    18.70577400
     401      3    6.19988700    0.47595800    17.68725500
     402      3    7.26920300    0.52411800    18.85097900
     403      2    6.13633900    2.84814400    20.26700400
     404      3    7.06862700    2.93613300    20.48068900
     405      3    6.05256300    2.17547700    19.57967600
     406      2    14.98519900    21.95766100    26.77911600
     407      3    14.37201600    21.21662900    26.87939800
     408      3    15.83542200    21.90808900    27.34687400
     409      2    17.34906000    17.84438700    22.27118900
     410      3    16.84927400    18.68125900    22.39054500
     411      3    17.66268500    17.82358700    21.28444500
     412      2    15.18785000    0.87633800    23.98517400
     413      3    15.33517700    0.67551700    24.95856500
     414      3    16.01623500    1.09868700    23.51026000
     415      2    12.20817900    7.69814500    16.66503000
     416      3    11.46745900    7.32721800    16.05064200
     417      3    11.96036000    7.46460700    17.59223000
     418      2    10.08709900    0.55692700    21.26202600
     419      3    9.44462800    0.40239200    21.97783100
     420      3    10.79096200    -0.15597700    21.19186200
     421      2    7.78072400    6.01909900    24.57369400
     422      3    8.17710600    6.51435800    25.29308900
     423      3    6.79945100    6.36629200    24.54617100
     424      2    0.35564900    -0.60645800    26.59633100
     425      3    0.50731700    -0.71440700    27.55263700
     426      3    0.80530100    -1.34398900    26.06421900
     427      2    9.27001900    0.26106500    18.62303400
     428      3    9.75260200    -0.58762600    18.30645700
     429      3    9.53950700    0.40939900    19.54734100
     430      2    1.92686900    9.89683500    20.92170400
     431      3    1.94875200    10.04359400    19.91964700
     432      3    2.84885100    9.61873900    21.10813700
     433      2    14.46998800    5.18615700    28.41260300
     434      3    14.14992600    6.06165500    28.63705400
     435      3    15.45364500    5.25692100    28.58364300
     436      2    8.92397400    3.39499800    13.84179100
     437      3    8.78453400    4.33173400    13.60100300
     438      3    9.84674600    3.19147100    13.88044500
     439      2    1.04523600    3.76823400    17.50197300
     440      3    1.38403100    2.91978900    17.72963800
     441      3    0.85517300    4.29193400    18.26874200
     442      2    22.20603400    14.75301000    17.49043200
     443      3    22.03941000    15.29743100    16.70679700
     444      3    21.84619100    15.44250100    18.15355800
     445      2    0.64555800    11.99163800    22.69748300
     446      3    0.52644200    12.81024200    22.23537800
     447      3    0.88047300    11.24055500    22.08821900
     448      2    10.27671600    21.66746700    28.98539400
     449      3    10.79498900    22.35812800    28.56744400
     450      3    10.79000800    20.87411500    29.15148000
     451      2    -0.38284900    12.17964800    17.43131400
     452      3    20.05409000    12.24320200    17.88952600
     453      3    0.04868800    13.08034200    17.44315800
     454      2    6.10954600    19.55296500    15.14936200
     455      3    6.41975300    19.25362800    14.32442100
     456      3    6.30749700    -0.95104800    15.10614900
     457      2    17.71746100    4.94115400    14.79324100
     458      3    17.42493600    5.84472800    14.96142800
     459      3    16.90634700    4.46915200    14.50770000
     460      2    6.12381600    20.04346300    23.01535400
     461      3    5.47647300    20.07532500    23.70679700
     462      3    5.69878800    20.20019000    22.12015000
     463      2    10.86665600    15.30326000    27.52453000
     464      3    9.90188500    15.49137800    27.42124600
     465      3    11.19884900    14.83501300    26.74179600
     466      2    14.80879100    11.07436700    17.19302100
     467      3    14.72540100    10.93927300    18.18391000
     468      3    13.91118300    10.80258100    16.75618400
     469      2    21.94483600    6.57496200    29.85502600
     470      3    22.78268800    6.05603700    29.59381700
     471      3    22.00762900    7.30851800    29.25917600
     472      2    11.34004800    5.83437300    23.15637400
     473      3    11.46007600    4.95230800    23.53126700
     474      3    11.24912900    5.56046400    22.17513700
     475      2    12.50384400    10.17242800    15.77303900
     476      3    11.57058700    10.51197500    15.71870200
     477      3    12.39425300    9.23164800    16.11755800
     478      2    10.82504900    19.28937500    24.53118500
     479      3    11.57461500    19.13105400    25.14657800
     480      3    10.55439900    18.36404600    24.25359900
     481      2    2.61102800    4.79845100    23.02323200
     482      3    2.95953200    3.87763900    23.14300300
     483      3    1.64963900    4.52950900    23.06458300
     484      2    1.40331300    15.41786100    12.88545300
     485      3    1.07064200    16.13250200    12.32111800
     486      3    1.30709200    14.60563400    12.33821000
     487      2    5.04032200    4.00431800    16.87930200
     488      3    4.85774700    4.87964600    16.49060200
     489      3    5.32225800    4.32181300    17.76877100
     490      2    3.74411900    1.95675200    16.00581400
     491      3    3.30780500    2.03903000    15.10514200
     492      3    4.18083800    2.80813300    16.33906800
     493      2    7.68288800    10.97743200    18.72027400
     494      3    8.57110700    11.10266300    19.13828000
     495      3    7.20091100    10.50977900    19.42099300
     496      2    1.43111500    10.26312000    18.14809800
     497      3    0.80118400    10.91149500    17.83227800
     498      3    2.35148400    10.44864900    17.80207300
     499      2    1.49497800    8.42009600    27.73021300