

1044 atoms
5 atom types 

   0.0000000000   21.3838100252 xlo xhi
   0.0000000000   21.6983097872 ylo yhi
   0.0000000000   70.0 zlo zhi

Masses

     1   12.01100000
     2   15.99900000
     3   1.00800000
     4   35.50000000
     5   23.00000000

Atoms # atomic

     1      1    22.00430500    6.93053700    9.78555600
     2      1    22.69714000    10.34074400    11.44468200
     3      1    11.40372200    17.55822000    8.49842100
     4      1    7.31747300    3.12232900    9.50848400
     5      1    9.98308400    5.39199200    10.89733800
     6      1    3.44127600    13.70758600    10.18310900
     7      1    24.18242500    15.09717600    10.26626500
     8      1    4.94773100    11.29252100    10.08647600
     9      1    3.40531700    11.11749400    9.91655200
     10      1    12.05716400    18.72297700    9.27669200
     11      1    9.90885000    15.03472700    8.98572900
     12      1    9.20646100    13.79103100    9.05908700
     13      1    10.00464800    12.60140000    9.59286800
     14      1    9.18897300    11.41817600    10.02117800
     15      1    11.43304200    12.48823700    9.25645200
     16      1    12.10973100    13.76562700    9.17455100
     17      1    11.37033700    15.04562500    9.24025100
     18      1    12.09167400    16.26755700    8.88803200
     19      1    16.46105000    18.75169000    9.32347600
     20      1    15.78648400    17.46543300    8.84908600
     21      1    14.11209500    12.80401700    10.46978300
     22      1    13.47049100    13.93519200    9.84252300
     23      1    13.52643500    11.44493000    10.26822100
     24      1    12.12139000    11.22026400    9.72800900
     25      1    9.27412300    6.67234000    10.68396800
     26      1    7.87574800    4.36280200    10.10098300
     27      1    9.12976300    4.18283900    10.90366100
     28      1    9.80993900    2.87257900    11.28467600
     29      1    9.05573800    1.65405100    10.83833800
     30      1    9.79755500    0.32121600    10.84253700
     31      1    11.35714800    0.31327800    11.09628700
     32      1    12.07136700    1.62704200    11.42009500
     33      1    13.56608000    4.08635900    11.53678800
     34      1    14.18515100    2.86925100    10.96903400
     35      1    11.32174200    5.34216900    11.47037100
     36      1    12.05446100    6.59686400    11.44775300
     37      1    20.50420000    6.86801000    9.89628600
     38      1    22.03663400    2.00545900    9.32178600
     39      1    22.81321000    0.75077800    9.15037200
     40      1    4.96726500    4.36486100    9.78062700
     41      1    5.73172400    3.08998200    9.40086400
     42      1    5.62270900    5.37772800    10.72976700
     43      1    4.86526100    6.63257100    10.85794300
     44      1    24.21918700    8.07393500    10.37062900
     45      1    3.59002500    6.84222300    10.20446000
     46      1    22.74844200    7.92981200    10.54509000
     47      1    21.98406400    8.93779800    11.39222700
     48      1    21.97062700    11.50869400    11.05356700
     49      1    3.40832100    4.32469100    9.57465500
     50      1    24.06005100    12.52863700    9.62624800
     51      1    12.07011600    4.08729000    11.11276000
     52      1    24.12782100    3.08528500    10.06563200
     53      1    7.24759600    0.60347900    9.19977100
     54      1    8.11918500    1.83428900    9.56757600
     55      1    9.23542400    16.31124900    9.44427300
     56      1    9.82350300    17.48929400    8.64898100
     57      1    13.53530100    16.17001000    8.52618300
     58      1    14.20472900    17.62732300    8.57174200
     59      1    15.61778300    12.89196200    10.84907600
     60      1    19.74984700    8.17781300    10.35501700
     61      1    20.46314600    8.95853900    11.47111100
     62      1    24.35781900    10.46876800    11.35005700
     63      1    3.57652300    9.05039300    11.30995200
     64      1    24.09378400    5.56082900    10.15684800
     65      1    22.72986600    5.68029800    9.43874500
     66      1    11.36584600    2.89156200    11.68861600
     67      1    22.50842300    12.49269300    9.97572900
     68      1    16.35203600    13.74670000    9.76774000
     69      1    20.58321600    4.36415100    9.86545500
     70      1    19.84970100    3.09979000    9.89290100
     71      1    20.51798800    1.91073600    9.59274600
     72      1    19.85785700    0.67416200    9.63769300
     73      1    20.66123600    21.15892200    9.50676600
     74      1    22.07331500    21.17382200    9.42192900
     75      1    5.68436600    7.87438800    11.00980400
     76      1    5.01623000    9.07686200    10.90558000
     77      1    5.70725900    10.20564200    10.51839000
     78      1    5.67366300    19.83892600    9.42044700
     79      1    19.94819100    17.48504600    9.58451200
     80      1    20.63856100    16.28341900    9.77334500
     81      1    18.47903300    15.01623600    9.93411400
     82      1    19.89255000    15.07248100    10.00982600
     83      1    20.52557600    11.49964100    11.03871900
     84      1    19.88275100    12.71537700    10.71064000
     85      1    20.58247800    13.94046800    10.34204800
     86      1    22.01428600    13.91329800    10.32294000
     87      1    22.70557400    15.10065400    10.15719600
     88      1    22.01236500    16.31085600    9.89773100
     89      1    22.77754800    17.51710300    9.74463500
     90      1    22.07640800    18.73433500    9.57971900
     91      1    19.91533700    19.91990300    9.60190400
     92      1    20.66807700    18.73981500    9.57606600
     93      1    22.78486600    19.98916100    9.49691200
     94      1    18.53764200    19.88047200    9.75190600
     95      1    17.82254600    18.69004100    9.74121400
     96      1    18.56004500    17.49776100    9.63498400
     97      1    17.74513100    16.29237600    9.59131100
     98      1    16.37961800    16.20994000    9.29027100
     99      1    17.75897600    13.86275500    10.16229400
     100      1    18.46368200    12.68449700    10.66323400
     101      1    17.68502400    11.56905400    11.02720900
     102      1    19.81278600    10.35658300    11.25274300
     103      1    18.41613000    10.38438700    11.30164000
     104      1    17.69912000    9.11239800    11.22223200
     105      1    18.31928400    7.98204800    10.77765100
     106      1    17.70856700    6.71063300    10.66614200
     107      1    18.44405200    5.53569200    10.37586200
     108      1    19.78904000    5.57530400    9.98453300
     109      1    17.75582900    4.23919600    10.43207100
     110      1    18.45441400    3.03116600    10.15560300
     111      1    17.72946200    1.79028600    10.10948300
     112      1    18.43834300    0.62080400    9.80198400
     113      1    17.78538500    21.06686600    9.87429600
     114      1    16.38256600    21.06590500    9.95588100
     115      1    15.59440800    0.53309600    10.22947300
     116      1    16.26543800    1.76228000    10.29787300
     117      1    15.63299400    2.93522900    10.76450600
     118      1    16.31543000    4.16488700    10.71475100
     119      1    15.62153200    19.90873300    9.69713800
     120      1    14.18597700    7.84878600    11.12353800
     121      1    13.49737300    6.62559100    11.26323900
     122      1    14.25825600    5.44918700    11.26547100
     123      1    15.63748900    5.41706500    10.94340000
     124      1    16.31864200    6.63418700    11.02978600
     125      1    15.56830200    7.82865400    11.13035300
     126      1    16.28187900    9.08098400    11.20874200
     127      1    15.61578800    10.34187900    11.14085400
     128      1    14.16348300    10.30486900    10.97901500
     129      1    13.46691300    9.06136500    10.93658500
     130      1    9.22514200    9.02319200    10.70737200
     131      1    9.97949600    7.85973300    10.95952400
     132      1    11.36583300    7.81273300    11.02882200
     133      1    11.99951700    9.04128800    10.77400200
     134      1    11.27514900    10.13020600    10.24428700
     135      1    9.92510400    10.15230700    10.18700700
     136      1    7.05747800    7.82326600    10.90617500
     137      1    7.83040900    9.03631600    10.69449200
     138      1    7.11563000    10.21930600    10.44421000
     139      1    7.72625400    11.36850300    9.95029900
     140      1    7.03953200    12.55332900    9.66527600
     141      1    7.71901800    13.75530600    9.34526100
     142      1    7.04774800    14.95871800    9.42093000
     143      1    7.72510800    16.19218600    9.28532800
     144      1    7.05707800    17.41761200    9.26517100
     145      1    7.82951000    21.04920000    9.67366000
     146      1    9.15350900    20.98170500    10.03571900
     147      1    7.05831100    19.88093800    9.44335800
     148      1    7.78641200    18.66997000    9.31730900
     149      1    9.18218600    18.71541800    9.27241400
     150      1    9.89205800    19.82086900    9.68425800
     151      1    11.35085800    19.78446000    9.77673200
     152      1    12.04115200    20.93293200    10.31959500
     153      1    13.46810800    20.96740000    10.15412200
     154      1    15.63209300    15.05933000    9.52148600
     155      1    14.30023700    15.09627700    9.38782600
     156      1    22.67629600    3.17439200    9.80469100
     157      1    22.02631800    4.36004100    9.86651900
     158      1    7.75583600    6.60909200    10.71157200
     159      1    7.05919400    5.42720500    10.61727200
     160      1    14.12777700    0.50075900    10.34757800
     161      1    13.50446300    1.63905600    10.93095300
     162      1    14.22034500    19.80157300    9.77396900
     163      1    13.51491700    18.69927600    9.33103500
     164      1    4.86727800    13.72499700    9.82204200
     165      1    5.63195800    12.48534500    9.71999500
     166      1    5.73883400    0.64108000    9.49100000
     167      1    4.99331800    21.14633400    9.52787800
     168      1    4.96582700    1.88747300    9.43730900
     169      1    3.55177500    21.23118000    9.53336100
     170      1    3.51728400    1.88693500    9.56420900
     171      1    4.90103100    18.66943000    9.53741200
     172      1    24.23986200    0.71137000    9.39699700
     173      1    24.22168200    19.97252300    9.42020500
     174      1    5.61607800    17.41659400    9.46266900
     175      1    3.47614700    18.73617000    9.56275600
     176      1    4.90780500    16.22820300    9.70065700
     177      1    24.16433000    17.51648900    9.74652000
     178      1    5.57862100    14.94915200    9.67781900
     179      1    3.55102000    16.34783900    9.97451000
     180      1    16.27834700    11.54510300    10.89400600
     181      2    8.89176400    0.70550500    11.94528900
     182      2    8.03784300    4.04180200    8.67083100
     183      2    5.57265200    4.18097300    8.46669700
     184      2    8.98424600    3.60587000    12.21356400
     185      2    11.87203400    0.61706800    12.39790900
     186      2    11.61442300    17.76012000    7.10637000
     187      2    4.95113800    5.68471800    11.97856400
     188      2    22.53777300    1.55737100    7.97355100
     189      2    9.82993300    6.01385500    9.51775100
     190      2    11.46422500    6.00673100    12.72321700
     191      2    13.70253900    4.01499200    12.93522500
     192      2    9.61257300    14.36882700    7.79448400
     193      2    11.84169100    15.86021600    10.29952700
     194      2    3.48333600    7.66419600    9.06864900
     195      2    16.45138700    18.32100700    7.94706300
     196      2    24.58523900    14.36981900    11.45688400
     197      2    21.20447500    7.21707600    8.65768400
     198      2    9.72254600    12.51282200    11.03880300
     199      2    11.91836500    13.00387800    7.94759000
     200      2    22.44607700    7.75627200    12.10532100
     201      2    13.26231400    13.69375800    11.27325000
     202      2    2.98376600    10.28514500    8.90598200
     203      2    13.26811000    10.97408000    8.89959300
     204      2    22.38983900    11.40464000    12.39224600
     205      2    3.20633700    4.23925100    8.21791100
     206      2    24.10493900    12.64216000    8.26953800
     207      2    24.36712500    2.83105000    11.45139900
     208      2    12.02943900    3.97656100    9.64596200
     209      2    7.19527800    0.48609100    7.73665100
     210      2    9.15121800    1.88582200    8.54224400
     211      2    11.30803800    3.07769800    13.05908000
     212      2    9.25068600    17.24051900    7.28253700
     213      2    9.39824200    16.36523100    10.86879300
     214      2    23.65320600    5.37236700    11.52512600
     215      2    14.15654400    18.12735700    7.23036400
     216      2    22.74054900    5.68785200    8.04874500
     217      2    13.70025800    15.65569000    7.21631800
     218      2    3.55773800    8.46363500    12.56892000
     219      2    24.83756400    11.28746200    12.34077300
     220      2    19.67587700    9.05369500    9.19068500
     221      2    21.85595300    12.07754900    8.78105600
     222      2    20.09714500    8.54075700    12.83582700
     223      2    15.72977100    13.60400700    12.04289300
     224      2    16.20895800    12.99180300    8.55468500
     225      3    4.05283800    4.08133900    7.82460500
     226      3    2.96875200    10.84294500    8.12080300
     227      3    23.72395100    2.05603900    11.77788000
     228      3    12.44690600    4.81764700    9.28938900
     229      3    24.33017300    5.00446800    12.08545300
     230      3    8.12307000    0.42450300    7.46683400
     231      3    9.20385900    2.80555800    8.30838900
     232      3    12.22180500    3.38797400    13.36070600
     233      3    9.93703800    17.50288600    6.69102100
     234      3    9.94539400    17.16588200    11.09278500
     235      3    12.62334900    17.97845600    7.05155800
     236      3    23.15951500    4.86305300    7.66992300
     237      3    13.94527700    16.49626000    6.75389300
     238      3    2.60815600    8.19257700    12.90956400
     239      3    24.70410200    10.76789600    13.20647100
     240      3    20.57491900    9.13602700    8.82601000
     241      3    22.65009100    12.35774400    8.17123400
     242      3    20.54517000    7.66768100    13.07274700
     243      3    15.16633900    13.08316200    12.79079300
     244      3    16.05616200    13.57602800    7.81895600
     245      2    17.58621800    12.44506100    14.90677000
     246      3    16.85942800    10.77400300    14.47520800
     247      3    18.51916300    12.66412800    14.83323000
     248      3    17.04487400    13.13697300    14.51065500
     249      4    20.91684500    16.05677800    19.18548800
     250      2    17.77058400    18.30202700    14.88450100
     251      3    17.63372000    17.26153800    14.85885100
     252      3    17.48171800    18.76569700    13.92960800
     253      2    -2.23589300    -3.60902000    20.85645700
     254      3    -2.40198300    -2.93658000    20.17775600
     255      3    -1.65558100    -4.23463300    20.41910300
     256      2    9.00070800    18.06753700    15.24279100
     257      3    8.32920500    18.12854800    16.02716600
     258      3    8.55358800    17.53078500    14.55876500
     259      2    16.73642900    10.79501700    20.29489900
     260      3    17.09375000    11.60519400    19.87414500
     261      3    -4.34383100    10.88099400    21.25523200
     262      2    22.16595500    8.40416600    17.19686500
     263      3    22.91720600    8.60087900    17.75725200
     264      3    21.77061800    7.56555700    17.61153000
     265      2    13.40333400    2.81056100    22.65718300
     266      3    13.20671100    1.87328500    22.42449600
     267      3    13.27407500    3.27846700    21.77766400
     268      2    1.47079300    22.75992000    28.82741400
     269      3    0.90528500    22.18027700    29.33958600
     270      3    0.87748900    23.03286200    28.04137800
     271      2    16.40145500    12.55783200    25.42065800
     272      3    17.28270000    12.98778300    25.26252700
     273      3    15.85235700    12.92305300    24.67610500
     274      2    12.24825000    19.58276700    29.96683900
     275      3    12.11665600    19.38620200    29.02522300
     276      3    12.20616100    18.68695100    30.38590600
     277      2    6.95948800    4.67136800    23.19697200
     278      3    7.79731500    4.75654100    23.76030000
     279      3    7.12169200    4.00783600    22.52096900
     280      2    11.42008500    17.40913600    21.67389900
     281      3    12.05349700    17.38467400    20.87078500
     282      3    11.65085800    18.20987100    22.17760500
     283      2    22.54653700    9.69538500    20.58567500
     284      3    23.24716900    9.33268200    20.06202000
     285      3    22.37225300    10.50930200    20.14151800
     286      2    13.20097500    7.37687500    18.57855200
     287      3    12.30387600    7.41998300    19.09925800
     288      3    12.82370800    7.01678700    17.73853600
     289      2    16.17031900    7.07252700    17.27027500
     290      3    15.72033200    6.79262000    16.47746300
     291      3    15.41032500    7.31233400    17.90866500
     292      2    9.49329000    4.19476400    18.96713400
     293      3    10.39320900    4.30387500    19.36016300
     294      3    9.01417100    3.83084700    19.70604900
     295      2    7.53660300    8.88408600    25.34697700
     296      3    8.19852500    8.17271200    25.50847600
     297      3    6.77194000    8.64340500    25.97503300
     298      2    16.18272000    10.11898200    14.20733500
     299      3    16.55481700    9.19884900    14.24815600
     300      3    23.06914900    14.84860300    20.78517200
     301      2    7.80753200    18.73224600    31.44478600
     302      3    7.23407300    18.90953100    32.20850000
     303      3    7.33935200    18.50269700    30.64283800
     304      2    -0.76610100    21.56919100    29.86995700
     305      3    -0.80280000    21.12882800    28.99813800
     306      3    20.42452000    20.90110000    30.56796100
     307      2    7.42856400    11.52379100    19.66877800
     308      3    6.53177600    11.93021100    19.57261900
     309      3    7.66499700    11.15530600    18.80433300
     310      2    10.88351900    -1.38995000    18.61906900
     311      3    10.33594600    -1.02811800    19.35396100
     312      3    10.75098800    -0.80668600    17.81897000
     313      2    15.53645700    28.45714600    20.28846200
     314      3    15.63800800    27.49786400    20.19467200
     315      3    14.58786800    28.55676700    20.11973400
     316      2    19.29607600    23.36752500    24.69145600
     317      3    19.30929900    22.37093000    24.85590000
     318      3    19.88591800    1.77046700    23.92557900
     319      2    9.54906700    -1.93483300    21.08223300
     320      3    8.63357200    -2.00130500    21.51306300
     321      3    10.05707200    -1.59459200    21.83406800
     322      2    -5.77712700    7.58387900    27.96090700
     323      3    15.77801400    8.47787900    27.65763700
     324      3    15.71527800    7.63062100    28.93597400
     325      2    7.29476800    17.07213600    12.89320900
     326      3    7.97931400    16.78924600    12.23049600
     327      3    6.80372100    17.77837600    12.43084000
     328      2    21.53459000    5.81025700    18.44426700
     329      3    20.95679300    6.12763300    19.15843400
     330      3    22.16645800    5.13972700    18.87618500
     331      2    8.39830100    9.67224400    13.75630000
     332      3    8.87833000    9.39397300    14.56076500
     333      3    8.01985400    10.56227100    13.80568500
     334      2    5.59962600    1.89773100    19.91372900
     335      3    5.20885500    1.08361700    20.32683800
     336      3    5.20410800    1.86031000    18.99606400
     337      2    2.77778700    10.51650100    14.81989600
     338      3    1.87361500    10.21486300    14.80954800
     339      3    3.30615800    9.82633900    15.20939600
     340      2    -4.89634500    14.40328100    19.90191800
     341      3    -4.68476300    14.74173000    20.78326400
     342      3    -4.25458300    14.82755000    19.32724500
     343      2    9.85510000    7.08262200    25.24690800
     344      3    9.72975200    6.25598400    24.75689500
     345      3    10.28028600    6.75782900    26.04377700
     346      2    -0.74122900    10.40738900    24.45019500
     347      3    -0.48778600    10.31340000    25.41086000
     348      3    21.04051000    11.16492600    24.00912500
     349      2    14.04064300    3.38925800    16.88528600
     350      3    14.86654100    2.93260800    17.32117200
     351      3    13.80216700    2.72219200    16.16292600
     352      2    -2.14717900    3.28505400    21.46531900
     353      3    -1.89569700    3.45303700    20.51422800
     354      3    -2.25861000    4.09262100    21.98621600
     355      2    3.10316700    23.33281700    22.10178800
     356      3    4.02364900    23.65976700    22.08969500
     357      3    2.87780900    23.10891000    21.21865800
     358      2    11.41158600    5.67043700    27.15495500
     359      3    10.98995400    4.79174100    26.99179300
     360      3    12.35640000    5.50762900    27.11126700
     361      2    16.41976400    16.80612900    26.16043100
     362      3    15.64021800    16.72428900    25.56568000
     363      3    16.26150300    16.11967800    26.86835700
     364      2    14.44947700    12.14919500    13.70993300
     365      3    14.88131400    11.25567100    13.76822900
     366      3    13.47661400    11.94516500    13.99026400
     367      2    14.20462100    18.23463200    12.77482300
     368      3    13.78450000    18.90925200    13.33723400
     369      3    13.85424000    17.40649200    13.13161000
     370      2    1.78718700    14.06913100    19.04009600
     371      3    2.20551500    13.74210100    18.26048200
     372      3    1.09366700    14.73910300    18.81057200
     373      2    15.03507900    5.81346800    14.25024500
     374      3    14.62649900    5.11355400    13.67218000
     375      3    15.23126500    5.31305300    15.02889900
     376      2    12.57592700    6.43750200    16.04496900
     377      3    12.71947700    7.24239900    15.47531300
     378      3    12.94022000    5.68879800    15.50617800
     379      2    14.77609200    17.94957500    16.78071700
     380      3    15.07719300    17.26334800    16.19282900
     381      3    13.87085900    17.69019300    16.87821100
     382      2    13.68752900    19.05217900    25.70042800
     383      3    13.19027600    18.81731800    26.58210900
     384      3    14.04413600    18.21616200    25.44294200
     385      2    21.67432800    9.82565300    14.94412600
     386      3    21.30827100    9.48702100    14.11333100
     387      3    21.57290600    9.23625600    15.69532000
     388      2    25.27991700    6.25740000    15.02217500
     389      3    26.21247100    5.92092900    14.88648800
     390      3    3.24539800    5.51442400    14.91515000
     391      2    13.23642300    12.98622500    25.72938300
     392      3    13.92224600    13.23920800    26.36615900
     393      3    13.62563500    13.08058700    24.81906100
     394      2    16.24198200    2.87523100    13.95883800
     395      3    15.33410000    3.23627100    13.65838000
     396      3    16.87865800    3.61021000    13.70233400
     397      2    22.47028500    29.45149600    26.54937200
     398      3    1.34002600    29.54286000    27.51222000
     399      3    1.18743700    28.46776400    26.41350900
     400      2    -1.93587800    16.38972300    24.90518800
     401      3    -2.90716400    16.58564900    24.97172900
     402      3    -1.51402100    16.64422800    25.82251000
     403      2    10.52363300    0.41859200    25.48726300
     404      3    9.94805600    0.47122700    26.28067400
     405      3    10.98437300    1.31192700    25.45578400
     406      2    9.60521400    30.19295700    15.69447400
     407      3    9.15899800    7.94534400    16.39356800
     408      3    10.55416400    29.94439300    15.73433600
     409      2    2.17641600    5.11566700    22.41332200
     410      3    2.39175600    4.25189200    22.89947900
     411      3    1.31723700    5.41841500    22.80653600
     412      2    5.98280800    20.75392300    26.83588200
     413      3    5.89066300    21.59995800    26.34470200
     414      3    5.15859600    20.76237900    27.39189500
     415      2    10.90420200    22.31300500    30.12402000
     416      3    11.64414500    22.90601900    30.00098200
     417      3    11.36212900    21.41435200    30.07262200
     418      2    7.08329600    21.42572400    17.78063500
     419      3    7.39926100    22.01075600    17.07412900
     420      3    7.31635700    21.85388200    18.59925900
     421      2    6.31494500    21.52504700    30.31604400
     422      3    6.76956200    20.71425800    30.26665900
     423      3    6.96974800    22.18349800    30.57998700
     424      2    0.84309500    29.57336600    29.49236700
     425      3    0.68231200    6.99528700    29.85772300
     426      3    -0.00136100    29.94548800    29.76831100
     427      2    12.94134500    7.69655800    24.85153000
     428      3    13.31357300    7.17501000    25.63863900
     429      3    11.99688400    7.74049700    24.90665600
     430      2    14.39833200    16.59118500    24.52138100
     431      3    14.57089000    16.88697800    23.58825700
     432      3    13.91352800    15.76372200    24.34566500
     433      2    -0.00162700    5.64403100    23.90628200
     434      3    -0.94175800    5.41831300    23.66546400
     435      3    -0.01349300    6.60663500    24.17502200
     436      2    5.97906100    16.25238400    24.63566600
     437      3    4.99618400    16.30817800    24.80319600
     438      3    6.34988600    15.42489300    24.93236400
     439      2    9.04982900    13.45985600    28.11024700
     440      3    9.81655800    13.65997900    27.51887900
     441      3    9.06237900    12.53208500    28.32381800
     442      2    -0.92246900    17.13639800    27.36126100
     443      3    0.02390200    17.15461900    27.24521800
     444      3    -1.13330400    18.09783900    27.44144100
     445      2    21.27147300    1.73474700    22.77320300
     446      3    22.21736100    1.81420900    22.68475700
     447      3    20.92117300    2.35820600    22.09040600
     448      2    -0.88788800    -0.81616500    25.02054400
     449      3    0.02994500    -0.54279600    24.76211900
     450      3    -0.95598300    -1.66530300    24.43289000
     451      2    12.13511000    2.87218400    25.18734900
     452      3    12.73545100    2.69543700    25.96405400
     453      3    12.73016900    2.85643300    24.40881200
     454      2    14.91260500    17.49943400    21.83246800
     455      3    14.97606800    18.42425900    21.97534400
     456      3    14.42204700    17.43950700    20.95056700
     457      2    9.66932200    5.57946900    16.47180700
     458      3    10.55003900    5.97322500    16.57020200
     459      3    9.36187600    5.16880800    17.24406800
     460      2    22.19761500    21.40985300    18.39244700
     461      3    22.92542100    21.05609700    17.82287800
     462      3    22.67451900    22.19846300    18.78827000
     463      2    9.79289500    1.79182600    22.21811500
     464      3    9.80199100    2.48109800    22.94023700
     465      3    9.16372200    1.07975700    22.47402400
     466      2    20.29646700    12.58845100    15.23703500
     467      3    20.96522500    13.11936100    14.84028100
     468      3    20.63309500    11.66342500    15.13413900
     469      2    20.97146200    6.11264700    13.48000000
     470      3    21.85177800    5.85963100    13.16818900
     471      3    20.95719300    5.88477800    14.49490900
     472      2    12.03256600    17.88391900    17.29236500
     473      3    11.45719800    17.15433500    17.40016700
     474      3    11.44486700    18.66128200    17.62171000
     475      2    16.58442700    23.66980400    29.52647200
     476      3    16.41024000    22.79450800    29.15490700
     477      3    17.47238700    23.72730400    29.98732600
     478      2    3.23278900    8.93691300    18.79646000
     479      3    3.91938000    8.31137800    18.38785900
     480      3    3.65775300    9.81525200    18.70798600
     481      2    11.59070200    15.11480200    17.56227500
     482      3    11.93783500    14.29346900    17.80111400
     483      3    10.70987400    15.17784400    17.98810800
     484      2    2.86930100    3.33975600    24.71807500
     485      3    2.20425700    3.70199100    25.28284300
     486      3    2.97283400    2.36906500    24.84311900
     487      2    19.87853200    -2.87464800    31.16991400
     488      3    20.19914100    -3.81871100    31.22052200
     489      3    18.94001000    18.67299500    31.25256200
     490      2    11.23208000    10.88668100    25.57566500
     491      3    11.94633400    11.49451900    25.56997900
     492      3    10.67081000    11.27048100    26.27778200
     493      2    1.48153800    -4.25690300    23.01830300
     494      3    0.54553100    -3.88201200    23.03630400
     495      3    1.46741900    -5.01590800    22.43602000
     496      2    22.22652800    18.18577600    16.89064300
     497      3    17.89305700    15.67217500    16.04140600