

1044 atoms
4 atom types

0.000000 21.178497 xlo xhi
0.000000 21.766067 ylo yhi
0.000000 70.000000 zlo zhi

Masses

1 12.011000
2 15.999000
3 1.008000
4 35.500000

Atoms # atomic

1 1 3.030480 19.407800 9.142390
2 1 3.703450 1.402790 10.260950
3 1 13.637400 8.629300 9.154800
4 1 9.491490 15.801500 10.033840
5 1 12.310600 18.217500 11.061920
6 1 5.874690 4.939720 9.978800
7 1 5.163090 6.164350 9.359180
8 1 7.346400 2.494870 9.846430
9 1 5.872040 2.529260 9.607150
10 1 14.392300 9.623810 9.959600
11 1 12.156800 6.205920 9.138080
12 1 11.474800 4.933190 9.211130
13 1 12.263100 3.658770 9.487940
14 1 11.517100 2.361600 9.482360
15 1 13.697300 3.584470 9.104830
16 1 14.412500 4.902990 9.107690
17 1 13.630900 6.054960 9.574430
18 1 14.422700 7.365080 9.311840
19 1 18.687400 9.687540 9.751300
20 1 18.006500 8.571550 9.092420
21 1 16.500400 3.637110 10.090100
22 1 15.784700 4.890520 9.553320
23 1 15.768100 2.344730 10.021720
24 1 14.399900 2.247190 9.409070
25 1 11.549000 19.479000 10.967140
26 1 10.002300 16.946900 10.999260
27 1 11.449000 16.945200 11.441740
28 1 12.267700 15.635500 11.392600
29 1 11.445500 14.437700 10.756930
30 1 12.290100 13.291600 10.228810
31 1 13.735700 13.188100 10.504280
32 1 14.528900 14.409200 10.954990
33 1 15.894300 16.854700 10.494590
34 1 16.771200 15.637600 10.711800
35 1 13.790600 18.133900 10.988180
36 1 14.574000 19.394500 10.785940
37 1 1.526190 19.384500 9.141530
38 1 3.051130 14.450100 9.225420
39 1 3.824910 13.255200 9.729100
40 1 7.314220 17.135200 9.415230
41 1 8.059380 15.852000 9.529660
42 1 7.980710 18.307700 10.183110
43 1 7.223000 19.460200 10.628450
44 1 5.216170 20.740700 9.940950
45 1 5.887740 19.413700 9.937430
46 1 3.706460 20.682500 9.758210
47 1 2.921070 0.126498 10.200710
48 1 3.024700 2.548070 9.555080
49 1 5.837920 17.006600 9.279210
50 1 5.167440 3.826990 9.191850
51 1 14.325000 16.767000 10.546350
52 1 5.241830 15.762100 9.646390
53 1 9.508280 13.376100 9.529180
54 1 10.256000 14.546400 9.767740
55 1 11.375100 7.370980 9.674300
56 1 12.063200 8.597080 9.274470
57 1 15.906700 7.331170 9.009640
58 1 16.523400 8.602940 8.955540
59 1 17.970800 3.681270 10.111130
60 1 0.802449 20.700300 9.344250
61 1 1.396540 0.058257 9.982330
62 1 5.256680 1.447320 10.497350
63 1 5.962060 0.187731 10.620130
64 1 5.074280 18.102000 9.789720
65 1 3.789560 18.094900 9.152020
66 1 13.828200 15.708600 11.306180
67 1 3.771180 3.781650 9.090920
68 1 18.576100 4.790790 9.457990
69 1 1.657510 16.904100 9.381110
70 1 0.959633 15.724300 9.473190
71 1 1.561400 14.472300 9.470400
72 1 0.947465 13.212300 9.599170
73 1 1.627460 12.011000 9.550670
74 1 3.007960 11.954900 9.556600
75 1 8.045050 20.674900 10.438520
76 1 7.411000 21.826200 10.371930
77 1 8.102190 1.210100 10.095370
78 1 8.002720 10.950600 9.506790
79 1 0.999255 8.485620 9.577620
80 1 1.596230 7.255200 9.535620
81 1 20.746400 6.059530 9.576530
82 1 0.927765 6.076270 9.581350
83 1 1.537300 2.508150 9.649060
84 1 0.838405 3.716150 9.591250
85 1 1.596330 4.868530 9.493860
86 1 2.952120 4.939920 9.349080
87 1 3.621640 6.150620 9.406820
88 1 2.969650 7.351760 9.484950
89 1 3.816030 8.422750 9.518210
90 1 3.134830 9.644130 9.490520
91 1 0.986966 10.808400 9.576730
92 1 1.741730 9.680730 9.566010
93 1 3.817240 10.861100 9.437370
94 1 20.779900 10.944800 9.632580
95 1 20.176800 9.716350 9.645510
96 1 20.804600 8.510910 9.578970
97 1 20.150800 7.324130 9.506460
98 1 18.758600 7.290130 9.375380
99 1 20.013000 4.892750 9.550960
100 1 20.671900 3.697900 9.687570
101 1 20.034500 2.453210 9.783490
102 1 0.756616 1.360800 9.807100
103 1 20.564000 1.206630 9.783300
104 1 19.899700 21.770000 9.786180
105 1 20.553900 20.515900 9.635430
106 1 19.977700 19.258400 9.656230
107 1 20.725900 18.080800 9.613910
108 1 0.889706 18.052100 9.348120
109 1 20.091600 16.829200 9.718650
110 1 20.799200 15.677500 9.637810
111 1 20.103100 14.528800 9.777270
112 1 20.733800 13.283000 9.736870
113 1 19.993100 12.104500 9.726430
114 1 18.617400 12.204300 9.813630
115 1 17.898400 13.353000 9.937320
116 1 18.720300 14.441500 9.938110
117 1 18.155300 15.670100 10.192490
118 1 18.757300 16.897000 9.967800
119 1 17.908300 10.996600 9.816650
120 1 16.660300 20.531800 10.179560
121 1 16.008300 19.367600 10.395180
122 1 16.726900 18.168600 10.293590
123 1 18.043500 18.071700 10.011690
124 1 18.632800 19.271500 9.895480
125 1 18.013900 20.499300 9.967930
126 1 18.564000 21.752000 9.884260
127 1 17.962400 1.177390 9.924070
128 1 16.551700 1.051650 10.017290
129 1 15.869600 21.679400 10.100020
130 1 11.547500 21.749200 10.189820
131 1 12.363600 20.658800 10.504670
132 1 13.741300 20.636300 10.460080
133 1 14.449800 21.725300 10.157620
134 1 13.635700 0.994917 9.809650
135 1 12.277700 1.077780 9.835450
136 1 9.405970 20.677100 10.383070
137 1 10.198600 21.803400 10.179190
138 1 9.446300 1.198930 9.982010
139 1 9.986680 2.423890 9.660090
140 1 9.423780 3.696280 9.644420
141 1 10.019300 4.883780 9.502270
142 1 9.384220 6.116940 9.594200
143 1 9.938600 7.358150 9.590340
144 1 9.329270 8.591830 9.610530
145 1 10.183700 12.116400 9.652970
146 1 11.549900 12.018500 9.923600
147 1 9.381630 10.972100 9.576600
148 1 10.050700 9.766150 9.632420
149 1 11.420400 9.858770 9.594460
150 1 12.259300 10.887400 9.832200
151 1 13.652800 10.937000 10.009300
152 1 14.445500 12.055400 10.197210
153 1 15.833300 12.042300 10.064780
154 1 17.993700 6.133840 9.396550
155 1 16.600600 6.121830 9.321020
156 1 3.771710 15.705500 9.468270
157 1 3.035600 16.842800 9.338890
158 1 10.086300 19.503900 10.650270
159 1 9.417630 18.262000 10.613070
160 1 16.532400 13.209800 10.152570
161 1 16.002300 14.382300 10.605600
162 1 16.562800 10.877600 9.768650
163 1 15.852900 9.726980 9.544340
164 1 7.446130 4.946680 9.797500
165 1 8.097390 3.795530 9.809580
166 1 8.015570 13.398500 9.525000
167 1 7.332770 12.168800 9.500070
168 1 7.342540 14.551100 9.557630
169 1 6.004190 12.076000 9.517870
170 1 5.971650 14.491800 9.573890
171 1 7.331900 9.746070 9.516020
172 1 5.335690 13.292500 9.575380
173 1 5.209810 10.902100 9.494670
174 1 8.003600 8.560990 9.589310
175 1 5.918200 9.747490 9.477500
176 1 7.278310 7.371380 9.620500
177 1 5.156890 8.586800 9.495220
178 1 8.006080 6.176990 9.636460
179 1 5.945590 7.437580 9.499570
180 1 18.653300 2.348890 9.924360
181 2 11.563700 13.179900 11.442740
182 2 10.153600 16.978300 9.588970
183 2 8.137930 16.585100 8.380910
184 2 11.686000 16.208200 12.627340
185 2 13.984700 13.423900 11.812590
186 2 14.180500 9.820630 8.535500
187 2 7.564930 18.347500 11.523930
188 2 3.506420 13.469500 8.366400
189 2 12.002400 18.887300 9.785960
190 2 14.521300 18.723800 11.989940
191 2 16.580300 16.646500 11.697380
192 2 11.672500 5.560410 7.969820
193 2 14.108500 6.829440 10.601300
194 2 5.838140 20.158600 8.808490
195 2 18.647100 9.635070 8.315910
196 2 5.052200 5.764030 10.757650
197 2 2.300050 19.611200 7.975360
198 2 11.875500 2.949270 10.644450
199 2 14.114000 4.229840 7.870490
200 2 3.293030 20.889200 11.058540
201 2 15.844900 4.636360 10.940600
202 2 6.737260 2.060620 8.644030
203 2 15.603900 2.233260 8.664550
204 2 2.996200 2.497340 10.951220
205 2 6.015250 17.103800 7.919360
206 2 5.710350 3.963200 7.958920
207 2 5.115170 15.616900 10.992290
208 2 14.102200 16.775000 9.209300
209 2 9.289410 13.213400 8.144160
210 2 10.913200 15.049700 8.602840
211 2 14.055900 15.716400 12.667460
212 2 12.144100 8.814200 7.949770
213 2 11.439100 7.132920 11.074960
214 2 4.889210 18.322700 11.170810
215 2 16.594100 9.123700 7.635350
216 2 3.581710 17.768100 7.808620
217 2 15.623600 6.951180 7.699760
218 2 6.092630 21.611300 11.960850
219 2 5.239910 2.195120 11.652280
220 2 0.374972 20.809800 8.019450
221 2 3.396550 3.255130 7.933940
222 2 1.203920 0.259721 11.352360
223 2 18.139800 3.784340 11.495440
224 2 18.689200 4.748630 8.133910
225 3 6.895250 16.940800 7.711590
226 3 6.388490 3.325430 7.789620
227 3 5.087280 16.499900 11.417410
228 3 13.682100 17.579300 8.919220
229 3 3.970330 18.291300 11.504750
230 3 9.865970 13.871200 7.776000
231 3 10.938200 15.999400 8.702810
232 3 13.607400 15.098200 13.258100
233 3 12.891300 9.388070 7.775440
234 3 12.064100 7.658040 11.559290
235 3 17.400200 9.623260 7.563210
236 3 4.379960 17.356300 7.421500
237 3 15.834400 7.853750 7.357140
238 3 5.790210 0.602358 12.446770
239 3 4.309860 2.355980 11.805040
240 3 0.929260 20.158100 7.590380
241 3 4.300750 3.314320 7.534680
242 3 1.037300 21.243300 11.918960
243 3 17.580800 3.252280 12.067860
244 3 19.032900 5.503030 7.663620
245 2 6.784410 9.784130 12.376720
246 3 7.166570 10.530000 13.042260
247 3 5.740820 9.757970 12.573910
248 3 7.182350 8.819380 12.672940
249 4 1.497480 8.937770 19.904800
250 2 11.961700 9.293190 28.320900
251 3 12.833400 8.970560 28.689700
252 3 12.111100 9.699530 27.419400
253 2 12.374400 2.087990 19.763100
254 3 12.456500 3.065300 19.958400
255 3 12.217300 1.589780 20.615800
256 2 12.523500 9.909120 15.397100
257 3 13.343200 9.836910 15.965300
258 3 12.672300 10.592800 14.682700
259 2 3.685140 0.679465 25.839700
260 3 4.293110 21.920200 26.435000
261 3 4.176270 1.471530 25.477100
262 2 11.712300 1.112140 17.250100
263 3 12.204300 1.217840 16.385900
264 3 12.339300 1.272530 18.012400
265 2 12.841400 8.463910 13.094130
266 3 12.651700 9.104860 13.837880
267 3 13.659900 7.932540 13.312730
268 2 17.023200 6.518210 12.655240
269 3 17.768100 5.953150 13.010070
270 3 16.524700 6.009990 11.952930
271 2 17.973300 14.969400 19.134000
272 3 18.244400 14.914100 20.094900
273 3 18.790500 15.002300 18.558500
274 2 4.616160 9.402520 18.390100
275 3 5.332260 8.756940 18.655500
276 3 3.754840 9.142950 18.826900
277 2 7.673630 15.264500 16.743900
278 3 8.433160 15.145400 17.383300
279 3 7.004580 14.534100 16.881300
280 2 0.721680 12.403100 21.183900
281 3 0.881366 12.897100 22.038600
282 3 0.136654 11.611600 21.360800
283 2 18.815000 19.466000 27.150400
284 3 18.555600 20.428000 27.064800
285 3 19.682700 19.311400 26.678100
286 2 3.503360 11.187200 21.653300
287 3 2.865100 10.686900 21.068200
288 3 3.390250 10.889200 22.601100
289 2 2.591050 18.249200 12.429970
290 3 2.166950 17.570100 13.029040
291 3 2.058960 19.095500 12.456310
292 2 16.224700 13.717900 30.327000
293 3 16.805100 14.460100 29.992000
294 3 15.368200 14.096900 30.677600
295 2 16.970800 0.287217 20.961700
296 3 16.451600 0.880094 21.577300
297 3 17.940900 0.525025 21.009500
298 2 16.980400 9.565080 21.929500
299 3 16.398600 8.758620 21.824200
300 3 17.396800 9.792960 21.049400
301 2 9.899040 3.850190 22.128600
302 3 9.951140 3.689870 23.114300
303 3 10.266500 4.756140 21.918400
304 2 1.159620 21.393200 25.341400
305 3 2.020560 21.772000 25.680900
306 3 1.011800 21.693800 24.399200
307 2 9.608620 2.668710 26.576300
308 3 9.888850 3.241260 25.805800
309 3 10.198600 1.862710 26.624600
310 2 19.955500 2.990260 25.489300
311 3 18.979600 2.971380 25.271900
312 3 20.116900 2.492470 26.341500
313 2 18.451600 6.545150 26.264900
314 3 18.864100 5.754770 26.717800
315 3 19.113300 6.950780 25.634200
316 2 6.450050 20.949300 26.995800
317 3 6.711590 21.854100 26.659700
318 3 7.272600 20.408700 27.172300
319 2 16.914100 10.214900 24.564600
320 3 16.757100 10.138000 23.580000
321 3 17.747100 9.718630 24.809100
322 2 10.317100 13.912500 21.005500
323 3 10.703800 14.814400 20.813500
324 3 9.905570 13.913500 21.916900
325 2 19.037700 3.220100 20.843700
326 3 19.825000 3.626240 20.379800
327 3 18.199900 3.669650 20.533900
328 2 10.853300 19.453000 25.474800
329 3 9.958200 19.844400 25.261300
330 3 11.098300 19.676300 26.418300
331 2 11.603800 21.779300 13.410260
332 3 12.155600 0.688205 13.900000
333 3 10.758800 0.442047 13.090630
334 2 2.587710 4.308680 24.705200
335 3 2.348510 4.510000 23.755300
336 3 3.348170 3.659660 24.727000
337 2 10.428000 8.145340 15.229100
338 3 10.614300 7.675180 14.366370
339 3 11.171000 8.784500 15.427600
340 2 6.230300 9.798230 25.495600
341 3 5.742090 9.058640 25.032300
342 3 6.751550 10.325300 24.824400
343 2 8.365100 8.897580 16.925500
344 3 9.039200 8.434150 16.350300
345 3 8.709610 9.800950 17.180900
346 2 2.871920 17.708500 16.391100
347 3 2.105030 17.223700 16.811500
348 3 3.589090 17.054000 16.151700
349 2 16.790400 4.276570 20.073000
350 3 16.549900 3.863290 19.194800
351 3 16.032200 4.160900 20.714600
352 2 13.256600 1.507720 14.988970
353 3 14.113000 1.060320 14.731340
354 3 13.391600 2.498320 15.011100
355 2 5.064440 19.261700 25.005800
356 3 4.647070 20.071500 24.593400
357 3 5.426390 19.496100 25.908000
358 2 0.855477 17.407100 21.512600
359 3 1.841060 17.301300 21.380500
360 3 0.511563 16.653600 22.073100
361 2 10.244300 6.043190 17.400800
362 3 9.533550 5.339870 17.385800
363 3 10.376400 6.403270 16.477300
364 2 3.197430 10.718800 24.328600
365 3 3.712690 9.862400 24.362800
366 3 3.676490 11.417400 24.860000
367 2 19.509700 0.758904 21.483600
368 3 19.429500 1.742110 21.319700
369 3 20.285300 0.584308 22.090100
370 2 17.683500 7.769210 16.058300
371 3 18.064100 7.347780 15.235200
372 3 18.043000 8.697410 16.154200
373 2 5.586400 3.962980 17.777400
374 3 5.600320 4.735860 18.411800
375 3 4.692330 3.516660 17.815400
376 2 19.860300 7.675380 20.702600
377 3 20.741200 8.128500 20.566200
378 3 19.455900 7.458450 19.814100
379 2 5.992930 4.249040 14.019170
380 3 5.760200 5.058410 14.558390
381 3 5.246440 4.044400 13.386020
382 2 11.477500 13.866000 24.450300
383 3 11.265800 12.961400 24.820300
384 3 12.236800 13.792300 23.803800
385 2 4.451870 15.514500 27.319500
386 3 5.285950 15.792800 26.843300
387 3 4.664330 14.776700 27.960300
388 2 16.470300 18.444800 13.898340
389 3 16.312700 17.815600 13.137260
390 3 15.660000 19.015300 14.032450
391 2 12.656000 11.892400 13.614210
392 3 12.216800 12.074100 12.734420
393 3 12.809800 12.755800 14.094630
394 2 2.162900 4.497890 21.942300
395 3 1.323820 4.121560 22.335200
396 3 2.549680 3.843220 21.292800
397 2 7.813710 20.174900 21.759400
398 3 8.330010 20.491500 20.963700
399 3 6.846970 20.091200 21.517800
400 2 9.371340 17.223000 22.207100
401 3 9.943930 16.955000 21.432300
402 3 9.546670 18.180600 22.435600
403 2 19.288200 21.294300 14.740910
404 3 19.944700 0.236331 14.481010
405 3 19.571700 20.417900 14.351670
406 2 19.384400 9.501990 25.165800
407 3 20.129600 9.554330 24.501000
408 3 19.764200 9.468260 26.090300
409 2 16.363000 16.433300 24.404500
410 3 15.569300 16.702300 24.950100
411 3 16.962800 15.850900 24.953200
412 2 13.650900 4.126640 13.339620
413 3 13.949200 5.010880 13.698930
414 3 12.652800 4.073510 13.371500
415 2 14.553700 12.708800 27.162100
416 3 14.763700 13.016800 26.234200
417 3 15.404100 12.496000 27.643200
418 2 3.047790 7.145730 22.424300
419 3 2.660620 6.223800 22.435900
420 3 2.762560 7.616500 21.589400
421 2 19.348800 19.121700 18.218600
422 3 19.295300 18.802900 19.164900
423 3 20.294000 19.365700 18.002000
424 2 7.853350 10.720300 23.334500
425 3 7.053610 11.093700 22.864400
426 3 8.682780 10.984500 22.842300
427 2 19.533600 18.273200 21.168100
428 3 20.370500 17.726000 21.155200
429 3 19.242300 18.414600 22.114200
430 2 0.433859 20.088100 12.789000
431 3 20.704400 19.669100 12.793910
432 3 0.829352 20.037300 13.706060
433 2 12.194100 3.118290 28.560700
434 3 11.863400 2.364720 27.992600
435 3 11.569700 3.895260 28.480200
436 2 12.041000 7.802300 23.195700
437 3 11.200900 7.544650 22.718500
438 3 12.047300 8.790370 23.349600
439 2 13.705600 13.585100 22.716300
440 3 14.140700 14.329200 22.209500
441 3 14.351100 13.214600 23.384200
442 2 19.496400 18.727800 13.534460
443 3 18.520600 18.892100 13.389940
444 3 19.679900 17.746000 13.485050
445 2 20.161300 1.918180 17.736200
446 3 20.459700 2.594600 18.409600
447 3 19.237600 2.142190 17.425500
448 2 1.184390 6.219730 15.279400
449 3 0.882504 5.535080 15.942800
450 3 1.776690 5.786880 14.599820
451 2 12.354700 19.295200 22.911900
452 3 11.671900 19.602400 22.249100
453 3 11.897000 19.009200 23.753700
454 2 18.941100 12.271200 25.395500
455 3 18.615400 11.341800 25.221500
456 3 19.816100 12.232800 25.878100
457 2 15.188600 15.156600 17.294900
458 3 14.434300 14.525500 17.475500
459 3 15.512500 15.544600 18.157700
460 2 18.068200 0.552162 26.509400
461 3 17.376300 1.215620 26.794100
462 3 18.900000 0.686035 27.048100
463 2 2.352680 4.971890 13.228570
464 3 1.437650 4.786220 12.870460
465 3 2.860310 4.113900 13.307120
466 2 5.605220 5.862770 19.604800
467 3 5.981260 6.786570 19.532800
468 3 5.983340 5.411030 20.412900
469 2 1.758870 19.768600 15.121600
470 3 1.150060 20.108800 15.838200
471 3 2.254810 18.968000 15.457800
472 2 21.206300 15.644600 27.542200
473 3 20.575100 15.912100 26.814200
474 3 20.844600 15.946000 28.424400
475 2 21.161900 12.345900 27.069400
476 3 0.389817 13.168400 27.467400
477 3 0.672808 11.623100 27.021700
478 2 12.917700 5.119900 19.410500
479 3 13.371400 5.130480 18.519400
480 3 12.389400 5.961100 19.525600
481 2 19.135100 11.799700 17.239500
482 3 18.999000 11.420500 16.324300
483 3 20.076800 12.123900 17.329300
484 2 8.017520 7.499790 23.724500
485 3 8.555080 7.395490 24.561300
486 3 7.972820 8.467250 23.475500
487 2 11.271000 20.108000 20.627700
488 3 12.110400 19.927900 20.114900
489 3 10.708900 20.766000 20.126400
490 2 8.410980 20.747700 24.684500
491 3 8.008310 20.580800 23.784500
492 3 8.127160 21.647900 25.014900
493 2 20.928600 15.302600 22.941800
494 3 0.373843 14.579500 23.238500
495 3 20.491700 15.714800 23.741300
496 2 1.039020 18.950400 28.682800
497 3 1.160600 19.844100 29.114700
498 3 1.916270 18.471200 28.655800
499 2 0.349581 6.257910 25.781900
500 3 0.434530 5.268210 25.666700
501 3 0.127197 6.677990 24.902100
502 2 14.656100 20.169000 15.071400
503 3 14.831600 19.735400 15.955300
504 3 13.687500 20.075500 14.840770
505 2 4.773910 10.601300 27.528700
506 3 4.848270 9.844480 28.178100
507 3 5.173160 10.329500 26.653000
508 2 20.707100 3.918380 23.003900
509 3 19.985400 3.629410 22.374900
510 3 20.500100 3.585920 23.924000
511 2 4.115960 14.956700 23.683900
512 3 3.391170 15.381500 23.141500
513 3 4.797780 15.646400 23.927500
514 2 12.742100 10.661800 26.175000
515 3 11.930700 11.081600 25.768200
516 3 13.297400 11.367500 26.615000
517 2 2.399210 5.855950 18.868500
518 3 3.327150 6.025070 19.200700
519 3 1.813650 6.630900 19.106300
520 2 17.700000 20.531300 16.705700
521 3 18.127100 19.901500 17.354500
522 3 18.368700 20.800000 16.012500
523 2 13.192900 13.088100 17.366700
524 3 12.508800 12.990300 18.089500
525 3 13.498600 12.182600 17.072400
526 2 15.459900 3.303800 18.176600
527 3 15.540000 2.309180 18.242200
528 3 14.568800 3.541600 17.790000
529 2 5.848570 1.428660 20.362500
530 3 6.721250 1.876290 20.557600
531 3 5.766580 1.272990 19.378100
532 2 8.487840 17.906200 16.731600
533 3 7.749840 18.561100 16.894200
534 3 8.130010 16.975400 16.806600
535 2 3.479420 2.643140 14.101890
536 3 2.725170 2.685300 14.757120
537 3 3.970500 1.779280 14.214070
538 2 5.523080 0.876858 17.614500
539 3 6.018600 1.357430 16.890900
540 3 4.664560 0.517619 17.248600
541 2 7.268120 1.592750 26.259200
542 3 6.621670 2.240340 25.855800
543 3 8.197100 1.953290 26.175500
544 2 19.891200 16.048000 12.848130
545 3 19.224200 15.347300 13.101560
546 3 19.776800 16.283500 11.883020
547 2 0.122424 20.468600 20.322800
548 3 20.516600 21.066600 20.487600
549 3 0.083715 19.688500 20.947300
550 2 0.155121 20.939400 17.425900
551 3 0.592000 20.816900 18.317000
552 3 20.706900 21.717600 17.466100
553 2 6.851510 4.375330 25.120000
554 3 7.665850 4.471420 25.692400
555 3 7.072130 4.635780 24.180000
556 2 16.926800 16.144600 15.407900
557 3 16.750800 17.097500 15.160900
558 3 16.335700 15.883400 16.171000
559 2 14.557800 15.415000 28.111100
560 3 15.492600 15.642000 28.384400
561 3 14.496000 14.436200 27.915800
562 2 5.176060 8.316880 28.925900
563 3 5.638490 8.025750 29.763400
564 3 5.083980 7.536460 28.307500
565 2 15.680700 13.922700 20.258300
566 3 15.551500 14.684000 20.893700
567 3 16.484800 14.096000 19.689600
568 2 17.944900 9.000280 13.057180
569 3 17.042100 9.418860 12.958420
570 3 17.871300 8.012640 12.918750
571 2 15.868400 12.699600 14.142940
572 3 15.225700 13.394600 13.820440
573 3 16.068000 12.853600 15.110600
574 2 12.772400 17.530700 28.942700
575 3 12.020200 17.225600 28.358600
576 3 13.574800 16.956600 28.779800
577 2 14.153700 4.512600 24.737400
578 3 13.542000 5.272100 24.958700
579 3 15.085600 4.857310 24.623900
580 2 15.530600 10.340200 12.957920
581 3 15.718500 11.254000 13.318030
582 3 14.545800 10.168600 12.981750
583 2 6.160190 11.655500 18.944700
584 3 6.377910 12.046000 18.050200
585 3 5.568960 10.857900 18.825300
586 2 6.918010 8.183900 19.203600
587 3 7.448320 8.111830 18.358800
588 3 7.458570 8.660520 19.896800
589 2 7.481640 11.658400 13.625770
590 3 8.222850 11.844800 14.270620
591 3 7.038310 12.517500 13.370050
592 2 10.196600 11.582600 25.427600
593 3 9.993480 11.321500 26.371300
594 3 9.345850 11.628500 24.904000
595 2 9.561750 17.665900 14.078300
596 3 9.097020 18.041300 14.880190
597 3 8.882120 17.377600 13.403750
598 2 9.025050 14.855300 23.490900
599 3 9.204210 15.765900 23.118400
600 3 9.755510 14.605500 24.126500
601 2 12.144000 19.966900 27.921000
602 3 12.239500 19.207400 28.564400
603 3 13.045200 20.223000 27.571400
604 2 -0.057578 8.400850 13.958970
605 3 0.374855 7.682940 14.504500
606 3 0.628938 8.836000 13.376440
607 2 11.848300 15.420800 26.949900
608 3 11.657300 14.979000 26.073400
609 3 12.696700 15.052900 27.330700
610 2 12.169000 0.881702 22.415100
611 3 13.056800 0.511713 22.688800
612 3 11.479800 0.158214 22.454800
613 2 8.313210 3.456590 12.865840
614 3 8.427820 2.463210 12.872890
615 3 7.553210 3.708690 13.464890
616 2 15.245900 15.767500 21.956800
617 3 15.981000 16.016200 22.587500
618 3 14.782600 16.595800 21.641700
619 2 16.108600 17.083800 19.292700
620 3 16.236500 17.639600 20.114100
621 3 16.692900 16.273900 19.343900
622 2 7.063520 15.378400 21.607600
623 3 7.605070 16.193400 21.401400
624 3 7.524590 14.841900 22.314400
625 2 14.649100 10.746600 16.840500
626 3 14.716800 10.666300 17.835000
627 3 15.274400 11.458100 16.520200
628 2 17.758700 3.152930 16.366600
629 3 17.653700 3.474850 15.425700
630 3 17.041400 3.552380 16.937600
631 2 0.128817 13.342700 15.759900
632 3 0.857678 12.886000 16.269900
633 3 0.175121 13.072400 14.798210
634 2 14.172200 21.530900 23.646900
635 3 14.415200 21.407800 24.609100
636 3 13.776800 20.683800 23.291900
637 2 4.257690 8.183250 24.631300
638 3 4.168040 7.513710 25.368700
639 3 3.924940 7.784510 23.776800
640 2 19.201700 6.814330 18.066500
641 3 18.349900 7.012590 17.581700
642 3 19.962900 7.266580 17.601600
643 2 11.571200 12.122300 19.325200
644 3 11.948900 11.502600 20.013200
645 3 11.052400 12.847200 19.778500
646 2 13.581700 20.261700 19.335600
647 3 13.917200 19.936700 18.451400
648 3 13.909100 21.193200 19.494400
649 2 8.329590 13.114700 27.932300
650 3 8.892570 12.353600 28.254400
651 3 8.187650 13.030300 26.946000
652 2 18.077300 11.088700 19.749800
653 3 18.485700 11.160400 18.839900
654 3 18.757600 11.333500 20.440700
655 2 3.381600 17.096300 21.413200
656 3 4.252560 16.908900 21.867400
657 3 3.495690 17.006800 20.423800
658 2 10.691600 16.672300 17.530400
659 3 9.966670 17.334900 17.342000
660 3 11.537400 16.968500 17.086700
661 2 6.761760 1.770900 15.113300
662 3 6.445850 2.639680 14.731920
663 3 7.738270 1.832920 15.319600
664 2 21.108500 1.387170 13.781880
665 3 0.568117 1.732710 14.469950
666 3 0.442250 1.046730 12.993390
667 2 16.374500 2.991680 13.303820
668 3 15.490400 3.456800 13.349060
669 3 16.299400 2.090790 13.731330
670 2 12.664300 6.463810 25.568400
671 3 13.418900 6.883440 26.072900
672 3 12.499100 6.978190 24.726900
673 2 13.505800 4.778450 16.590900
674 3 12.830600 5.015930 15.892500
675 3 14.354100 5.279010 16.418200
676 2 14.027200 8.522240 19.185600
677 3 14.270100 9.452090 19.461900
678 3 13.955700 7.941480 19.996600
679 2 10.037600 14.892200 14.642110
680 3 10.004700 15.890400 14.692340
681 3 10.967300 14.600300 14.417550
682 2 9.024650 0.997822 13.261070
683 3 9.245480 1.415710 14.142320
684 3 8.623350 0.094367 13.411820
685 2 10.029000 11.326500 22.007000
686 3 10.966600 11.002100 22.132700
687 3 10.044400 12.250000 21.623600
688 2 15.436200 12.882500 24.584800
689 3 15.712800 11.945500 24.798200
690 3 16.249900 13.450000 24.459700
691 2 1.923120 14.149300 12.720010
692 3 0.966762 13.857900 12.697430
693 3 2.002710 14.990600 13.254580
694 2 2.002110 10.139400 26.916600
695 3 2.175720 10.295800 25.944300
696 3 2.872750 10.060500 27.402100
697 2 18.221700 14.717100 25.902200
698 3 18.560600 13.780500 25.813600
699 3 18.820300 15.337500 25.395500
700 2 19.445900 10.442000 14.693250
701 3 18.634900 10.178400 14.170880
702 3 20.150700 9.739920 14.591420
703 2 1.581060 13.348400 23.792200
704 3 2.180380 12.567700 23.615000
705 3 1.802060 13.742500 24.684300
706 2 14.523000 7.826390 21.877600
707 3 13.782600 7.715850 22.540700
708 3 15.107100 7.014880 21.891900
709 2 6.120920 8.579010 15.275800
710 3 5.730800 7.660790 15.344200
711 3 6.845200 8.685030 15.957100
712 2 5.986710 11.975400 21.715800
713 3 6.283930 11.938700 20.761700
714 3 5.008200 11.775900 21.768000
715 2 11.469700 7.349070 19.451500
716 3 12.316800 7.814700 19.195400
717 3 11.137400 6.811370 18.676600
718 2 7.914420 8.658830 27.328100
719 3 7.123760 8.297510 27.822300
720 3 7.623640 8.989330 26.430200
721 2 9.772770 7.062520 25.774800
722 3 10.769000 7.120420 25.709900
723 3 9.491560 7.207740 26.723400
724 2 9.843060 21.631200 18.795400
725 3 9.298990 20.983900 18.261500
726 3 10.623500 0.172897 18.251200
727 2 12.855100 11.241800 22.034700
728 3 13.672500 10.685600 21.884500
729 3 13.125600 12.178700 22.256200
730 2 11.487100 0.977941 27.117400
731 3 12.069200 1.163880 26.325900
732 3 11.774700 21.889100 27.549200
733 2 8.931180 9.020940 20.615300
734 3 9.735870 8.631460 20.167300
735 3 9.216440 9.749170 21.238500
736 2 7.443820 7.505980 12.994180
737 3 6.585610 6.997530 13.064550
738 3 8.207900 6.903900 13.225860
739 2 2.042190 17.577900 24.917400
740 3 2.142440 16.588500 25.022900
741 3 1.225200 17.884100 25.406000
742 2 0.661975 9.557060 23.493300
743 3 1.573860 9.928140 23.317900
744 3 0.585441 8.650590 23.078000
745 2 11.422800 5.002840 14.890390
746 3 10.858400 5.497720 14.229660
747 3 10.945400 4.173860 15.181700
748 2 17.498700 15.774100 28.722100
749 3 17.673400 15.290400 27.864500
750 3 18.217200 16.452800 28.874300
751 2 1.824980 0.085768 29.180500
752 3 1.746380 0.417760 30.120500
753 3 2.786950 21.682600 28.966100
754 2 13.098600 14.450200 14.777970
755 3 12.896400 15.387700 15.061200
756 3 13.247200 13.882200 15.587500
757 2 6.733530 16.756400 26.186100
758 3 7.626640 16.601600 26.608500
759 3 6.848480 17.294500 25.351100
760 2 8.910320 12.652900 15.708000
761 3 9.435380 13.434400 15.371000
762 3 9.400750 12.224100 16.466700
763 2 15.740000 0.410504 18.401300
764 3 16.356900 0.325706 19.183800
765 3 16.120100 21.679000 17.621700
766 2 17.807200 21.117600 24.148100
767 3 17.975100 21.549300 25.034400
768 3 17.863500 21.806800 23.425700
769 2 1.194420 16.447400 14.185420
770 3 1.300180 16.498900 15.178500
771 3 0.226869 16.336000 13.958600
772 2 14.275400 17.285800 25.804900
773 3 13.398500 17.764200 25.758700
774 3 14.538800 17.164400 26.761900
775 2 8.784890 2.160840 19.633500
776 3 9.219880 1.279100 19.451000
777 3 9.164090 2.552390 20.471900
778 2 16.577700 5.758260 24.278500
779 3 17.018600 6.066360 23.435500
780 3 17.122400 6.049280 25.065100
781 2 9.169600 15.869400 27.261300
782 3 8.750410 14.975500 27.420200
783 3 10.165200 15.780500 27.290100
784 2 14.541800 8.926030 25.169100
785 3 13.934100 9.523850 25.691900
786 3 15.455000 9.331480 25.129400
787 2 1.194880 16.094900 17.600000
788 3 1.636210 15.637000 18.371800
789 3 0.306701 15.670300 17.424200
790 2 5.631830 17.230800 23.134500
791 3 6.562120 17.549400 22.952600
792 3 5.239770 17.759300 23.887500
793 2 19.606000 17.646100 28.996200
794 3 19.228600 18.453200 28.542000
795 3 20.508100 17.864400 29.368400
796 2 7.314240 5.177540 22.344800
797 3 8.157120 4.760400 22.004900
798 3 7.496400 6.122100 22.618000
799 2 14.775900 20.951200 26.359800
800 3 14.976600 21.927500 26.279400
801 3 15.582700 20.472400 26.706100
802 2 1.057940 11.447400 17.732500
803 3 1.391680 12.188800 18.314800
804 3 0.976989 10.609900 18.272900
805 2 11.028400 16.550300 20.186400
806 3 10.881300 16.652500 19.202600
807 3 11.827200 17.085400 20.461300
808 2 3.557380 18.038100 27.833500
809 3 3.261890 18.255000 26.903100
810 3 4.036650 17.160500 27.835000
811 2 1.689280 10.333700 12.746320
812 3 1.592140 11.123600 12.140860
813 3 1.579460 10.626300 13.696230
814 2 1.922280 10.999800 15.286400
815 3 1.459110 11.127600 16.163400
816 3 2.812790 10.571300 15.439100
817 2 20.651900 4.078400 13.160820
818 3 20.699300 3.093480 13.327210
819 3 20.056900 4.255760 12.376960
820 2 20.519500 6.725680 23.355700
821 3 20.614400 5.748300 23.166800
822 3 19.979900 7.154380 22.631200
823 2 21.152300 8.368740 17.164200
824 3 0.035092 9.146410 16.538500
825 3 0.324388 8.634960 18.062200
826 2 16.393400 0.690378 14.378600
827 3 17.333200 0.516872 14.672930
828 3 15.818800 21.674400 14.620010
829 2 19.292900 6.188230 14.362950
830 3 19.814600 6.996460 14.089690
831 3 19.807100 5.363900 14.126100
832 2 18.231500 14.336800 22.170400
833 3 19.128500 14.760700 22.295700
834 3 18.305700 13.350300 22.316500
835 2 20.123500 4.582550 16.623900
836 3 19.404500 3.907320 16.459500
837 3 19.709400 5.450660 16.897500
838 2 16.846400 12.235400 28.258800
839 3 17.607500 11.596100 28.368700
840 3 16.702400 12.732500 29.114400
841 2 14.426500 4.465490 21.543300
842 3 14.031600 4.939420 22.330300
843 3 13.880200 4.659980 20.728600
844 2 5.284400 6.032140 15.946600
845 3 4.551720 6.661170 16.206400
846 3 5.138110 5.148320 16.391000
847 2 2.848690 3.198460 18.072300
848 3 2.599950 4.122510 18.362600
849 3 2.820410 2.582770 18.859800
850 2 15.560200 1.965680 26.374300
851 3 15.295400 2.507120 27.172300
852 3 16.303700 2.427110 25.890300
853 2 3.307510 1.722930 20.584900
854 3 4.289620 1.535010 20.596800
855 3 2.914820 1.500390 21.477300
856 2 7.743010 13.056900 25.335000
857 3 8.125000 13.699200 24.670500